 VARIABLES = X,Y,Z,S11,S22,S33,S12,S13,S23
 ZONE, T="0.1000D+01" F=FEPOINT, I=   12 J=    2 ET=BRICK
   0.0000000000E+00   0.0000000000E+00   0.0000000000E+00   0.3057836620E+02   0.1761255313E-07   0.1761265418E-07  -0.2299444063E-14   0.1482081045E-12   0.5145552611E-13
   0.1900000000E+01  -0.2596556250E-15   0.5904351665E-14   0.3057836620E+02   0.1761241362E-07   0.1761237939E-07   0.1776331395E-13   0.4877247947E-13  -0.3507891777E-14
   0.1900000000E+01   0.7291274386E+00  -0.3246411771E-14   0.3057836620E+02   0.1761243168E-07   0.1761243781E-07  -0.3106509921E-14  -0.3660472300E-13  -0.1813773638E-13
   0.0000000000E+00   0.7291274386E+00   0.0000000000E+00   0.3057836620E+02   0.1761243409E-07   0.1761233553E-07  -0.5349430907E-13  -0.6773845807E-13   0.4741045426E-13
   0.0000000000E+00   0.7107214174E-14   0.7291274386E+00   0.3057836620E+02   0.1761251310E-07   0.1761261888E-07   0.4713064455E-13  -0.1378298585E-12  -0.4667065429E-13
   0.1900000000E+01   0.8419062698E-14   0.7291274386E+00   0.3057836620E+02   0.1761238987E-07   0.1761238007E-07   0.9249835418E-14  -0.2351434802E-13   0.1808501607E-13
   0.1900000000E+01   0.7291274386E+00   0.7291274386E+00   0.3057836620E+02   0.1761238758E-07   0.1761241984E-07   0.3252971118E-13   0.3554033674E-13   0.3455171470E-14
   0.0000000000E+00   0.7291274386E+00   0.7291274386E+00   0.3057836620E+02   0.1761240253E-07   0.1761231251E-07  -0.6577066788E-13   0.4118904739E-13  -0.5071572613E-13
   0.3800000000E+01  -0.1117174617E-14   0.3912317440E-14   0.3057836620E+02   0.1761240073E-07   0.1761241548E-07  -0.1980213999E-13  -0.7492557046E-13  -0.2147807412E-13
   0.3800000000E+01   0.7291274386E+00  -0.5076547931E-14   0.3057836620E+02   0.1761245597E-07   0.1761249608E-07  -0.1034692273E-13  -0.2943187774E-13   0.8149006341E-14
   0.3800000000E+01   0.4905754156E-14   0.7291274386E+00   0.3057836620E+02   0.1761249788E-07   0.1761245253E-07  -0.8912376918E-13   0.6653873748E-13  -0.8733109838E-14
   0.3800000000E+01   0.7291274386E+00   0.7291274386E+00   0.3057836619E+02   0.1761256922E-07   0.1761255814E-07   0.7033729475E-13   0.5930736261E-14   0.2089397062E-13
     1     2     3     4     5     6     7     8
     2     9    10     3     6    11    12     7
 VARIABLES = X,Y,Z,S11,S22,S33,S12,S13,S23
 ZONE, T="0.1500D+01" F=FEPOINT, I=   12 J=    2 ET=BRICK
   0.0000000000E+00   0.0000000000E+00   0.0000000000E+00   0.2983002764E+02   0.7482851864E+00  -0.2054315727E-04   0.4724615959E+01  -0.7616262003E-08  -0.1206245179E-08
   0.1876607646E+01   0.2972254687E+00  -0.2723846687E-09   0.2983003622E+02   0.7482829138E+00  -0.2339208332E-04   0.4724620279E+01   0.3969272575E-13   0.6544256186E-15
   0.1762547387E+01   0.1017376168E+01  -0.2723933413E-09   0.2983003621E+02   0.7482829137E+00  -0.2339208327E-04   0.4724620278E+01  -0.4277849153E-13  -0.1737176267E-13
  -0.1140606608E+00   0.7201506699E+00   0.0000000000E+00   0.2983004781E+02   0.7482801103E+00  -0.2596100623E-04   0.4724619065E+01  -0.7616462817E-08  -0.1206281577E-08
  -0.1111813247E-14   0.7019712573E-14   0.7291274386E+00   0.2983002763E+02   0.7482851863E+00  -0.2054315726E-04   0.4724615959E+01   0.7616268529E-08   0.1206252448E-08
   0.1876607646E+01   0.2972254687E+00   0.7291274389E+00   0.2983003621E+02   0.7482829137E+00  -0.2339208332E-04   0.4724620278E+01  -0.3556562205E-13   0.5271813293E-14
   0.1762547387E+01   0.1017376168E+01   0.7291274389E+00   0.2983003621E+02   0.7482829136E+00  -0.2339208327E-04   0.4724620278E+01   0.2692128455E-13   0.1002133424E-13
  -0.1140606608E+00   0.7201506699E+00   0.7291274386E+00   0.2983004780E+02   0.7482801102E+00  -0.2596100624E-04   0.4724619064E+01   0.7616434946E-08   0.1206274030E-08
   0.3753215694E+01   0.5944509672E+00   0.3912317440E-14   0.2983004781E+02   0.7482801103E+00  -0.2596100613E-04   0.4724619065E+01   0.7616331499E-08   0.1206287485E-08
   0.3639155033E+01   0.1314601637E+01  -0.5076547931E-14   0.2983002763E+02   0.7482851863E+00  -0.2054315739E-04   0.4724615959E+01   0.7616356610E-08   0.1206320451E-08
   0.3753215694E+01   0.5944509672E+00   0.7291274386E+00   0.2983004781E+02   0.7482801103E+00  -0.2596100612E-04   0.4724619065E+01  -0.7616331363E-08  -0.1206315718E-08
   0.3639155033E+01   0.1314601637E+01   0.7291274386E+00   0.2983002763E+02   0.7482851862E+00  -0.2054315736E-04   0.4724615958E+01  -0.7616383567E-08  -0.1206295181E-08
     1     2     3     4     5     6     7     8
     2     9    10     3     6    11    12     7
