 VARIABLES = X,Y,DU1,DU2,U1,U2,S11,S22,S33,S12
 ZONE, T="0.1000D+01" F=FEPOINT, I=    9 J=    4
   0.0000000000E+00   0.0000000000E+00   0.0000000000E+00   0.0000000000E+00   0.0000000000E+00   0.0000000000E+00   0.5729984301E+01   0.5729984301E+01  -0.1412872841E+01  -0.4811736557E-15
   0.2100000000E+01   0.0000000000E+00   0.1000000000E+00   0.0000000000E+00   0.0000000000E+00   0.0000000000E+00   0.5729984301E+01   0.5729984301E+01  -0.1412872841E+01  -0.1814245524E-14
   0.2100000000E+01   0.1914285714E+01   0.1000000000E+00  -0.8571428571E-01   0.0000000000E+00   0.0000000000E+00   0.5729984301E+01   0.5729984301E+01  -0.1412872841E+01  -0.3352351063E-14
   0.0000000000E+00   0.1914285714E+01   0.0000000000E+00  -0.8571428571E-01   0.0000000000E+00   0.0000000000E+00   0.5729984301E+01   0.5729984301E+01  -0.1412872841E+01   0.3985532838E-14
   0.1050000000E+01   0.0000000000E+00   0.5000000000E-01   0.0000000000E+00   0.0000000000E+00   0.0000000000E+00   0.5729984301E+01   0.5729984301E+01  -0.1412872841E+01   0.7876947694E-15
   0.2100000000E+01   0.9571428571E+00   0.1000000000E+00  -0.4285714286E-01   0.0000000000E+00   0.0000000000E+00   0.5729984301E+01   0.5729984301E+01  -0.1412872841E+01  -0.3241967794E-14
   0.1050000000E+01   0.1914285714E+01   0.5000000000E-01  -0.8571428571E-01   0.0000000000E+00   0.0000000000E+00   0.5729984301E+01   0.5729984301E+01  -0.1412872841E+01   0.9861219171E-16
   0.0000000000E+00   0.9571428571E+00   0.0000000000E+00  -0.4285714286E-01   0.0000000000E+00   0.0000000000E+00   0.5729984301E+01   0.5729984301E+01  -0.1412872841E+01   0.1237068961E-14
   0.1050000000E+01   0.9571428571E+00   0.5000000000E-01  -0.4285714286E-01   0.0000000000E+00   0.0000000000E+00   0.5729984301E+01   0.5729984301E+01  -0.1412872841E+01   0.1237068961E-14
           1           5           9           8
           5           2           6           9
           9           6           3           7
           8           9           7           4
 VARIABLES = X,Y,DU1,DU2,U1,U2,S11,S22,S33,S12
 ZONE, T="0.2000D+01" F=FEPOINT, I=    9 J=    4
   0.0000000000E+00   0.0000000000E+00   0.0000000000E+00   0.0000000000E+00   0.0000000000E+00   0.0000000000E+00   0.1145996860E+02   0.1145996860E+02  -0.2825745683E+01  -0.4044974416E-15
   0.2200000000E+01   0.0000000000E+00   0.1000000000E+00   0.0000000000E+00   0.1000000000E+00   0.0000000000E+00   0.1145996860E+02   0.1145996860E+02  -0.2825745683E+01  -0.4058851898E-14
   0.2200000000E+01   0.1828571429E+01   0.1000000000E+00  -0.8571428571E-01   0.1000000000E+00  -0.8571428571E-01   0.1145996860E+02   0.1145996860E+02  -0.2825745683E+01  -0.2322267972E-15
   0.0000000000E+00   0.1828571429E+01   0.0000000000E+00  -0.8571428571E-01   0.0000000000E+00  -0.8571428571E-01   0.1145996860E+02   0.1145996860E+02  -0.2825745683E+01  -0.4698801393E-15
   0.1100000000E+01   0.0000000000E+00   0.5000000000E-01   0.0000000000E+00   0.5000000000E-01   0.0000000000E+00   0.1145996860E+02   0.1145996860E+02  -0.2825745683E+01  -0.6438520873E-15
   0.2200000000E+01   0.9142857143E+00   0.1000000000E+00  -0.4285714286E-01   0.1000000000E+00  -0.4285714286E-01   0.1145996860E+02   0.1145996860E+02  -0.2825745683E+01   0.6796099661E-15
   0.1100000000E+01   0.1828571429E+01   0.5000000000E-01  -0.8571428571E-01   0.5000000000E-01  -0.8571428571E-01   0.1145996860E+02   0.1145996860E+02  -0.2825745683E+01  -0.2711099820E-14
   0.0000000000E+00   0.9142857143E+00   0.0000000000E+00  -0.4285714286E-01   0.0000000000E+00  -0.4285714286E-01   0.1145996860E+02   0.1145996860E+02  -0.2825745683E+01  -0.6985551893E-15
   0.1100000000E+01   0.9142857143E+00   0.5000000000E-01  -0.4285714286E-01   0.5000000000E-01  -0.4285714286E-01   0.1145996860E+02   0.1145996860E+02  -0.2825745683E+01  -0.6985551893E-15
           1           5           9           8
           5           2           6           9
           9           6           3           7
           8           9           7           4
 VARIABLES = X,Y,DU1,DU2,U1,U2,S11,S22,S33,S12
 ZONE, T="0.3000D+01" F=FEPOINT, I=    9 J=    4
   0.0000000000E+00   0.0000000000E+00   0.0000000000E+00   0.0000000000E+00   0.0000000000E+00   0.0000000000E+00   0.1718995290E+02   0.1718995290E+02  -0.4238618524E+01  -0.1898098416E-14
   0.2300000000E+01   0.0000000000E+00   0.1000000000E+00   0.0000000000E+00   0.2000000000E+00   0.0000000000E+00   0.1718995290E+02   0.1718995290E+02  -0.4238618524E+01  -0.5304106673E-15
   0.2300000000E+01   0.1742857143E+01   0.1000000000E+00  -0.8571428571E-01   0.2000000000E+00  -0.1714285714E+00   0.1718995290E+02   0.1718995290E+02  -0.4238618524E+01   0.1174061410E-14
   0.0000000000E+00   0.1742857143E+01   0.0000000000E+00  -0.8571428571E-01   0.0000000000E+00  -0.1714285714E+00   0.1718995290E+02   0.1718995290E+02  -0.4238618524E+01  -0.1305628567E-14
   0.1150000000E+01   0.0000000000E+00   0.5000000000E-01   0.0000000000E+00   0.1000000000E+00   0.0000000000E+00   0.1718995290E+02   0.1718995290E+02  -0.4238618524E+01   0.2584009029E-15
   0.2300000000E+01   0.8714285714E+00   0.1000000000E+00  -0.4285714286E-01   0.2000000000E+00  -0.8571428571E-01   0.1718995290E+02   0.1718995290E+02  -0.4238618524E+01  -0.1292034897E-14
   0.1150000000E+01   0.1742857143E+01   0.5000000000E-01  -0.8571428571E-01   0.1000000000E+00  -0.1714285714E+00   0.1718995290E+02   0.1718995290E+02  -0.4238618524E+01  -0.1464305541E-14
   0.0000000000E+00   0.8714285714E+00   0.0000000000E+00  -0.4285714286E-01   0.0000000000E+00  -0.8571428571E-01   0.1718995290E+02   0.1718995290E+02  -0.4238618524E+01   0.8613025843E-16
   0.1150000000E+01   0.8714285714E+00   0.5000000000E-01  -0.4285714286E-01   0.1000000000E+00  -0.8571428571E-01   0.1718995290E+02   0.1718995290E+02  -0.4238618524E+01   0.8613025843E-16
           1           5           9           8
           5           2           6           9
           9           6           3           7
           8           9           7           4
 VARIABLES = X,Y,DU1,DU2,U1,U2,S11,S22,S33,S12
 ZONE, T="0.4000D+01" F=FEPOINT, I=    9 J=    4
   0.0000000000E+00   0.0000000000E+00   0.0000000000E+00   0.0000000000E+00   0.0000000000E+00   0.0000000000E+00   0.2291993721E+02   0.2291993721E+02  -0.5651491366E+01   0.9535391376E-15
   0.2400000000E+01   0.0000000000E+00   0.1000000000E+00   0.0000000000E+00   0.3000000000E+00   0.0000000000E+00   0.2291993721E+02   0.2291993721E+02  -0.5651491366E+01  -0.7307635999E-14
   0.2400000000E+01   0.1657142857E+01   0.1000000000E+00  -0.8571428571E-01   0.3000000000E+00  -0.2571428571E+00   0.2291993721E+02   0.2291993721E+02  -0.5651491366E+01  -0.3209668103E-14
   0.0000000000E+00   0.1657142857E+01   0.0000000000E+00  -0.8571428571E-01   0.0000000000E+00  -0.2571428571E+00   0.2291993721E+02   0.2291993721E+02  -0.5651491366E+01  -0.1118372550E-13
   0.1200000000E+01   0.0000000000E+00   0.5000000000E-01   0.0000000000E+00   0.1500000000E+00   0.0000000000E+00   0.2291993721E+02   0.2291993721E+02  -0.5651491366E+01   0.2558282222E-14
   0.2400000000E+01   0.8285714286E+00   0.1000000000E+00  -0.4285714286E-01   0.3000000000E+00  -0.1285714286E+00   0.2291993721E+02   0.2291993721E+02  -0.5651491366E+01  -0.6665242397E-15
   0.1200000000E+01   0.1657142857E+01   0.5000000000E-01  -0.8571428571E-01   0.1500000000E+00  -0.2571428571E+00   0.2291993721E+02   0.2291993721E+02  -0.5651491366E+01  -0.4332543555E-14
   0.0000000000E+00   0.8285714286E+00   0.0000000000E+00  -0.4285714286E-01   0.0000000000E+00  -0.1285714286E+00   0.2291993721E+02   0.2291993721E+02  -0.5651491366E+01  -0.7557350017E-14
   0.1200000000E+01   0.8285714286E+00   0.5000000000E-01  -0.4285714286E-01   0.1500000000E+00  -0.1285714286E+00   0.2291993721E+02   0.2291993721E+02  -0.5651491366E+01  -0.7557350017E-14
           1           5           9           8
           5           2           6           9
           9           6           3           7
           8           9           7           4
 VARIABLES = X,Y,DU1,DU2,U1,U2,S11,S22,S33,S12
 ZONE, T="0.5000D+01" F=FEPOINT, I=    9 J=    4
   0.0000000000E+00   0.0000000000E+00   0.0000000000E+00   0.0000000000E+00   0.0000000000E+00   0.0000000000E+00   0.2864992151E+02   0.2864992151E+02  -0.7064364207E+01  -0.2171743776E-14
   0.2500000000E+01   0.0000000000E+00   0.1000000000E+00   0.0000000000E+00   0.4000000000E+00   0.0000000000E+00   0.2864992151E+02   0.2864992151E+02  -0.7064364207E+01  -0.3273672975E-14
   0.2500000000E+01   0.1571428571E+01   0.1000000000E+00  -0.8571428571E-01   0.4000000000E+00  -0.3428571429E+00   0.2864992151E+02   0.2864992151E+02  -0.7064364207E+01   0.1216245565E-14
   0.0000000000E+00   0.1571428571E+01   0.0000000000E+00  -0.8571428571E-01   0.0000000000E+00  -0.3428571429E+00   0.2864992151E+02   0.2864992151E+02  -0.7064364207E+01  -0.1102585197E-13
   0.1250000000E+01   0.0000000000E+00   0.5000000000E-01   0.0000000000E+00   0.2000000000E+00   0.0000000000E+00   0.2864992151E+02   0.2864992151E+02  -0.7064364207E+01  -0.8205470133E-15
   0.2500000000E+01   0.7857142857E+00   0.1000000000E+00  -0.4285714286E-01   0.4000000000E+00  -0.1714285714E+00   0.2864992151E+02   0.2864992151E+02  -0.7064364207E+01  -0.3659828987E-14
   0.1250000000E+01   0.1571428571E+01   0.5000000000E-01  -0.8571428571E-01   0.2000000000E+00  -0.3428571429E+00   0.2864992151E+02   0.2864992151E+02  -0.7064364207E+01  -0.5299583768E-14
   0.0000000000E+00   0.7857142857E+00   0.0000000000E+00  -0.4285714286E-01   0.0000000000E+00  -0.1714285714E+00   0.2864992151E+02   0.2864992151E+02  -0.7064364207E+01  -0.9034986757E-15
   0.1250000000E+01   0.7857142857E+00   0.5000000000E-01  -0.4285714286E-01   0.2000000000E+00  -0.1714285714E+00   0.2864992151E+02   0.2864992151E+02  -0.7064364207E+01  -0.9034986757E-15
           1           5           9           8
           5           2           6           9
           9           6           3           7
           8           9           7           4
 VARIABLES = X,Y,DU1,DU2,U1,U2,S11,S22,S33,S12
 ZONE, T="0.6000D+01" F=FEPOINT, I=    9 J=    4
   0.0000000000E+00   0.0000000000E+00   0.0000000000E+00   0.0000000000E+00   0.0000000000E+00   0.0000000000E+00   0.3437990581E+02   0.3437990581E+02  -0.8477237049E+01   0.1554696594E-14
   0.2600000000E+01   0.0000000000E+00   0.1000000000E+00   0.0000000000E+00   0.5000000000E+00   0.0000000000E+00   0.3437990581E+02   0.3437990581E+02  -0.8477237049E+01  -0.7456429352E-14
   0.2600000000E+01   0.1485714286E+01   0.1000000000E+00  -0.8571428571E-01   0.5000000000E+00  -0.4285714286E+00   0.3437990581E+02   0.3437990581E+02  -0.8477237049E+01  -0.9700318842E-14
   0.0000000000E+00   0.1485714286E+01   0.0000000000E+00  -0.8571428571E-01   0.0000000000E+00  -0.4285714286E+00   0.3437990581E+02   0.3437990581E+02  -0.8477237049E+01  -0.1058601273E-13
   0.1300000000E+01   0.0000000000E+00   0.5000000000E-01   0.0000000000E+00   0.2500000000E+00   0.0000000000E+00   0.3437990581E+02   0.3437990581E+02  -0.8477237049E+01  -0.6546757106E-14
   0.2600000000E+01   0.7428571429E+00   0.1000000000E+00  -0.4285714286E-01   0.5000000000E+00  -0.2142857143E+00   0.3437990581E+02   0.3437990581E+02  -0.8477237049E+01   0.1898092508E-14
   0.1300000000E+01   0.1485714286E+01   0.5000000000E-01  -0.8571428571E-01   0.2500000000E+00  -0.4285714286E+00   0.3437990581E+02   0.3437990581E+02  -0.8477237049E+01  -0.7924922262E-14
   0.0000000000E+00   0.7428571429E+00   0.0000000000E+00  -0.4285714286E-01   0.0000000000E+00  -0.2142857143E+00   0.3437990581E+02   0.3437990581E+02  -0.8477237049E+01  -0.2580944247E-14
   0.1300000000E+01   0.7428571429E+00   0.5000000000E-01  -0.4285714286E-01   0.2500000000E+00  -0.2142857143E+00   0.3437990581E+02   0.3437990581E+02  -0.8477237049E+01  -0.2580944247E-14
           1           5           9           8
           5           2           6           9
           9           6           3           7
           8           9           7           4
 VARIABLES = X,Y,DU1,DU2,U1,U2,S11,S22,S33,S12
 ZONE, T="0.7000D+01" F=FEPOINT, I=    9 J=    4
   0.0000000000E+00   0.0000000000E+00   0.0000000000E+00   0.0000000000E+00   0.0000000000E+00   0.0000000000E+00   0.4010989011E+02   0.4010989011E+02  -0.9890109890E+01   0.8535860132E-15
   0.2700000000E+01   0.0000000000E+00   0.1000000000E+00   0.0000000000E+00   0.6000000000E+00   0.0000000000E+00   0.4010989011E+02   0.4010989011E+02  -0.9890109890E+01  -0.1716229856E-13
   0.2700000000E+01   0.1400000000E+01   0.1000000000E+00  -0.8571428571E-01   0.6000000000E+00  -0.5142857143E+00   0.4010989011E+02   0.4010989011E+02  -0.9890109890E+01  -0.1508144860E-13
   0.0000000000E+00   0.1400000000E+01   0.0000000000E+00  -0.8571428571E-01   0.0000000000E+00  -0.5142857143E+00   0.4010989011E+02   0.4010989011E+02  -0.9890109890E+01  -0.1374559745E-13
   0.1350000000E+01   0.0000000000E+00   0.5000000000E-01   0.0000000000E+00   0.3000000000E+00   0.0000000000E+00   0.4010989011E+02   0.4010989011E+02  -0.9890109890E+01   0.2391928462E-15
   0.2700000000E+01   0.7000000000E+00   0.1000000000E+00  -0.4285714286E-01   0.6000000000E+00  -0.2571428571E+00   0.4010989011E+02   0.4010989011E+02  -0.9890109890E+01  -0.5957058343E-15
   0.1350000000E+01   0.1400000000E+01   0.5000000000E-01  -0.8571428571E-01   0.3000000000E+00  -0.5142857143E+00   0.4010989011E+02   0.4010989011E+02  -0.9890109890E+01  -0.8029798086E-14
   0.0000000000E+00   0.7000000000E+00   0.0000000000E+00  -0.4285714286E-01   0.0000000000E+00  -0.2571428571E+00   0.4010989011E+02   0.4010989011E+02  -0.9890109890E+01  -0.1231010966E-13
   0.1350000000E+01   0.7000000000E+00   0.5000000000E-01  -0.4285714286E-01   0.3000000000E+00  -0.2571428571E+00   0.4010989011E+02   0.4010989011E+02  -0.9890109890E+01  -0.1231010966E-13
           1           5           9           8
           5           2           6           9
           9           6           3           7
           8           9           7           4
 VARIABLES = X,Y,DU1,DU2,U1,U2,S11,S22,S33,S12
 ZONE, T="0.8000D+01" F=FEPOINT, I=    9 J=    4
   0.0000000000E+00   0.0000000000E+00   0.0000000000E+00   0.0000000000E+00   0.0000000000E+00   0.0000000000E+00   0.4583987441E+02   0.4583987441E+02  -0.1130298273E+02  -0.3380987122E-14
   0.2800000000E+01   0.0000000000E+00   0.1000000000E+00   0.0000000000E+00   0.7000000000E+00   0.0000000000E+00   0.4583987441E+02   0.4583987441E+02  -0.1130298273E+02  -0.1797241362E-13
   0.2800000000E+01   0.1314285714E+01   0.1000000000E+00  -0.8571428571E-01   0.7000000000E+00  -0.6000000000E+00   0.4583987441E+02   0.4583987441E+02  -0.1130298273E+02  -0.1044408354E-13
   0.0000000000E+00   0.1314285714E+01   0.0000000000E+00  -0.8571428571E-01   0.0000000000E+00  -0.6000000000E+00   0.4583987441E+02   0.4583987441E+02  -0.1130298273E+02  -0.1475669492E-13
   0.1400000000E+01   0.0000000000E+00   0.5000000000E-01   0.0000000000E+00   0.3500000000E+00   0.0000000000E+00   0.4583987441E+02   0.4583987441E+02  -0.1130298273E+02   0.1654404487E-14
   0.2800000000E+01   0.6571428571E+00   0.1000000000E+00  -0.4285714286E-01   0.7000000000E+00  -0.3000000000E+00   0.4583987441E+02   0.4583987441E+02  -0.1130298273E+02  -0.4174165465E-15
   0.1400000000E+01   0.1314285714E+01   0.5000000000E-01  -0.8571428571E-01   0.3500000000E+00  -0.6000000000E+00   0.4583987441E+02   0.4583987441E+02  -0.1130298273E+02  -0.1419449480E-13
   0.0000000000E+00   0.6571428571E+00   0.0000000000E+00  -0.4285714286E-01   0.0000000000E+00  -0.3000000000E+00   0.4583987441E+02   0.4583987441E+02  -0.1130298273E+02  -0.8341866190E-14
   0.1400000000E+01   0.6571428571E+00   0.5000000000E-01  -0.4285714286E-01   0.3500000000E+00  -0.3000000000E+00   0.4583987441E+02   0.4583987441E+02  -0.1130298273E+02  -0.8341866190E-14
           1           5           9           8
           5           2           6           9
           9           6           3           7
           8           9           7           4
 VARIABLES = X,Y,DU1,DU2,U1,U2,S11,S22,S33,S12
 ZONE, T="0.9000D+01" F=FEPOINT, I=    9 J=    4
   0.0000000000E+00   0.0000000000E+00   0.0000000000E+00   0.0000000000E+00   0.0000000000E+00   0.0000000000E+00   0.5156985871E+02   0.5156985871E+02  -0.1271585557E+02  -0.8392705039E-14
   0.2900000000E+01   0.0000000000E+00   0.1000000000E+00   0.0000000000E+00   0.8000000000E+00   0.0000000000E+00   0.5156985871E+02   0.5156985871E+02  -0.1271585557E+02  -0.4903007619E-14
   0.2900000000E+01   0.1228571429E+01   0.1000000000E+00  -0.8571428571E-01   0.8000000000E+00  -0.6857142857E+00   0.5156985871E+02   0.5156985871E+02  -0.1271585557E+02   0.1248075471E-13
   0.0000000000E+00   0.1228571429E+01   0.0000000000E+00  -0.8571428571E-01   0.0000000000E+00  -0.6857142857E+00   0.5156985871E+02   0.5156985871E+02  -0.1271585557E+02  -0.9468179696E-14
   0.1450000000E+01   0.0000000000E+00   0.5000000000E-01   0.0000000000E+00   0.4000000000E+00   0.0000000000E+00   0.5156985871E+02   0.5156985871E+02  -0.1271585557E+02  -0.9596572479E-15
   0.2900000000E+01   0.6142857143E+00   0.1000000000E+00  -0.4285714286E-01   0.8000000000E+00  -0.3428571429E+00   0.5156985871E+02   0.5156985871E+02  -0.1271585557E+02  -0.4534563563E-14
   0.1450000000E+01   0.1228571429E+01   0.5000000000E-01  -0.8571428571E-01   0.4000000000E+00  -0.6857142857E+00   0.5156985871E+02   0.5156985871E+02  -0.1271585557E+02  -0.1060681334E-13
   0.0000000000E+00   0.6142857143E+00   0.0000000000E+00  -0.4285714286E-01   0.0000000000E+00  -0.3428571429E+00   0.5156985871E+02   0.5156985871E+02  -0.1271585557E+02   0.7868922836E-14
   0.1450000000E+01   0.6142857143E+00   0.5000000000E-01  -0.4285714286E-01   0.4000000000E+00  -0.3428571429E+00   0.5156985871E+02   0.5156985871E+02  -0.1271585557E+02   0.7868922836E-14
           1           5           9           8
           5           2           6           9
           9           6           3           7
           8           9           7           4
 VARIABLES = X,Y,DU1,DU2,U1,U2,S11,S22,S33,S12
 ZONE, T="0.1000D+02" F=FEPOINT, I=    9 J=    4
   0.0000000000E+00   0.0000000000E+00   0.0000000000E+00   0.0000000000E+00   0.0000000000E+00   0.0000000000E+00   0.5729984301E+02   0.5729984301E+02  -0.1412872841E+02   0.2416916923E-15
   0.3000000000E+01   0.0000000000E+00   0.1000000000E+00   0.0000000000E+00   0.9000000000E+00   0.0000000000E+00   0.5729984301E+02   0.5729984301E+02  -0.1412872841E+02  -0.1381946400E-13
   0.3000000000E+01   0.1142857143E+01   0.1000000000E+00  -0.8571428571E-01   0.9000000000E+00  -0.7714285714E+00   0.5729984301E+02   0.5729984301E+02  -0.1412872841E+02  -0.1543493695E-13
   0.0000000000E+00   0.1142857143E+01   0.0000000000E+00  -0.8571428571E-01   0.0000000000E+00  -0.7714285714E+00   0.5729984301E+02   0.5729984301E+02  -0.1412872841E+02  -0.2372502605E-13
   0.1500000000E+01   0.0000000000E+00   0.5000000000E-01   0.0000000000E+00   0.4500000000E+00   0.0000000000E+00   0.5729984301E+02   0.5729984301E+02  -0.1412872841E+02  -0.4173736251E-15
   0.3000000000E+01   0.5714285714E+00   0.1000000000E+00  -0.4285714286E-01   0.9000000000E+00  -0.3857142857E+00   0.5729984301E+02   0.5729984301E+02  -0.1412872841E+02  -0.1906739003E-14
   0.1500000000E+01   0.1142857143E+01   0.5000000000E-01  -0.8571428571E-01   0.4500000000E+00  -0.7714285714E+00   0.5729984301E+02   0.5729984301E+02  -0.1412872841E+02  -0.1213177745E-13
   0.0000000000E+00   0.5714285714E+00   0.0000000000E+00  -0.4285714286E-01   0.0000000000E+00  -0.3857142857E+00   0.5729984301E+02   0.5729984301E+02  -0.1412872841E+02  -0.1086481251E-13
   0.1500000000E+01   0.5714285714E+00   0.5000000000E-01  -0.4285714286E-01   0.4500000000E+00  -0.3857142857E+00   0.5729984301E+02   0.5729984301E+02  -0.1412872841E+02  -0.1086481251E-13
           1           5           9           8
           5           2           6           9
           9           6           3           7
           8           9           7           4
