 VARIABLES = X,Y,Z,DU1,DU2,DU3,U1,U2,U3,S11,S22,S33,S12,S13,S23
 ZONE, T="0.1000D-01" F=FEPOINT, I=    8 J=    1 ET=BRICK
   0.0000000000E+00   0.3835350029E-04   0.0000000000E+00   0.0000000000E+00   0.3835350029E-04   0.0000000000E+00   0.0000000000E+00   0.0000000000E+00   0.0000000000E+00   0.6987899837E-01   0.1078817726E-12   0.1078770333E-12  -0.9339277668E-18  -0.6780594820E-19   0.6053866557E-18
   0.1000100000E+01   0.3835350029E-04   0.9791750501E-22   0.1000000000E-03   0.3835350029E-04   0.9791750501E-22   0.0000000000E+00   0.0000000000E+00   0.0000000000E+00   0.6987899836E-01   0.1079392342E-12   0.1079405041E-12  -0.9871984201E-17   0.1500165853E-17   0.5196726965E-17
   0.1000100000E+01   0.1000000000E+01   0.6192791053E-20   0.1000000000E-03   0.0000000000E+00   0.6192791053E-20   0.0000000000E+00   0.0000000000E+00   0.0000000000E+00   0.6987899835E-01   0.1079228166E-12   0.1079202768E-12   0.3042289781E-17  -0.4019681766E-18   0.6053866553E-18
   0.0000000000E+00   0.1000000000E+01   0.5691135002E-20   0.0000000000E+00   0.0000000000E+00   0.5691135002E-20   0.0000000000E+00   0.0000000000E+00   0.0000000000E+00   0.6987899836E-01   0.1079041994E-12   0.1079136782E-12  -0.1231752147E-17   0.1816854671E-19   0.1147835222E-17
   0.0000000000E+00   0.3835350029E-04   0.9999616465E+00   0.0000000000E+00   0.3835350029E-04  -0.3835350029E-04   0.0000000000E+00   0.0000000000E+00   0.0000000000E+00   0.6987899836E-01   0.1079288258E-12   0.1079383045E-12  -0.3256198019E-17   0.2006277320E-17  -0.1247109977E-17
   0.1000100000E+01   0.3835350029E-04   0.9999616465E+00   0.1000000000E-03   0.3835350029E-04  -0.3835350029E-04   0.0000000000E+00   0.0000000000E+00   0.0000000000E+00   0.6987899835E-01   0.1079162180E-12   0.1079136781E-12   0.3584738347E-17   0.9444169875E-18   0.7773358951E-18
   0.1000100000E+01   0.1000000000E+01   0.9999616465E+00   0.1000000000E-03   0.0000000000E+00  -0.3835350029E-04   0.0000000000E+00   0.0000000000E+00   0.0000000000E+00   0.6987899834E-01   0.1079178281E-12   0.1079190980E-12  -0.5634276909E-18  -0.2530557363E-18  -0.1247109977E-17
   0.0000000000E+00   0.1000000000E+01   0.9999616465E+00   0.0000000000E+00   0.0000000000E+00  -0.3835350029E-04   0.0000000000E+00   0.0000000000E+00   0.0000000000E+00   0.6987899835E-01   0.1079332249E-12   0.1079284856E-12  -0.6095017891E-18  -0.5375803181E-18   0.1862233027E-17
     1     2     3     4     5     6     7     8
 VARIABLES = X,Y,Z,DU1,DU2,DU3,U1,U2,U3,S11,S22,S33,S12,S13,S23
 ZONE, T="0.2250D-01" F=FEPOINT, I=    8 J=    1 ET=BRICK
   0.0000000000E+00   0.9065013172E-04   0.0000000000E+00   0.0000000000E+00   0.5229663143E-04   0.0000000000E+00   0.0000000000E+00   0.3835350029E-04   0.0000000000E+00   0.1310992095E+00   0.1743820053E-09   0.1743819914E-09   0.2977041272E-17  -0.5498547810E-17  -0.4275032230E-17
   0.1000225000E+01   0.9065013172E-04  -0.2360049685E-19   0.1250000000E-03   0.5229663143E-04  -0.2369841436E-19   0.1000000000E-03   0.3835350029E-04   0.9791750501E-22   0.1310992095E+00   0.1743819873E-09   0.1743820062E-09  -0.6978526039E-17  -0.3317057082E-17   0.5617843663E-17
   0.1000225000E+01   0.1000000000E+01   0.1164111956E-19   0.1250000000E-03   0.0000000000E+00   0.5448328502E-20   0.1000000000E-03   0.0000000000E+00   0.6192791053E-20   0.1310992095E+00   0.1743820985E-09   0.1743820890E-09  -0.2587732336E-19   0.8417294221E-19   0.7184925211E-17
   0.0000000000E+00   0.1000000000E+01  -0.1786094602E-19   0.0000000000E+00   0.0000000000E+00  -0.2355208102E-19   0.0000000000E+00   0.0000000000E+00   0.5691135002E-20   0.1310992095E+00   0.1743820201E-09   0.1743820555E-09   0.9657549897E-19   0.7980702142E-17  -0.4356666989E-17
   0.0000000000E+00   0.9065013172E-04   0.9999093499E+00   0.0000000000E+00   0.5229663143E-04  -0.5229663143E-04   0.0000000000E+00   0.3835350029E-04  -0.3835350029E-04   0.1310992095E+00   0.1743822007E-09   0.1743822032E-09   0.1345122829E-17   0.5720506942E-17  -0.2259742265E-17
   0.1000225000E+01   0.9065013172E-04   0.9999093499E+00   0.1250000000E-03   0.5229663143E-04  -0.5229663143E-04   0.1000000000E-03   0.3835350029E-04  -0.3835350029E-04   0.1310992095E+00   0.1743820501E-09   0.1743820494E-09  -0.3604245288E-18   0.9961035848E-17  -0.4966000884E-17
   0.1000225000E+01   0.1000000000E+01   0.9999093499E+00   0.1250000000E-03   0.0000000000E+00  -0.5229663143E-04   0.1000000000E-03   0.0000000000E+00  -0.3835350029E-04   0.1310992095E+00   0.1743820233E-09   0.1743820094E-09   0.6785375089E-17  -0.1006854853E-16  -0.6103032000E-17
   0.0000000000E+00   0.1000000000E+01   0.9999093499E+00   0.0000000000E+00   0.0000000000E+00  -0.5229663143E-04   0.0000000000E+00   0.0000000000E+00  -0.3835350029E-04   0.1310992095E+00   0.1743820413E-09   0.1743820362E-09  -0.2256192026E-17  -0.6973057478E-17   0.7750510140E-17
     1     2     3     4     5     6     7     8
 VARIABLES = X,Y,Z,DU1,DU2,DU3,U1,U2,U3,S11,S22,S33,S12,S13,S23
 ZONE, T="0.3812D-01" F=FEPOINT, I=    8 J=    1 ET=BRICK
   0.0000000000E+00   0.1588488722E-03   0.0000000000E+00   0.0000000000E+00   0.6819874046E-04   0.0000000000E+00   0.0000000000E+00   0.9065013172E-04   0.0000000000E+00   0.1906567671E+00   0.5047084726E-10   0.5047084032E-10   0.4578044384E-18  -0.5293545144E-17  -0.2243785948E-17
   0.1000381250E+01   0.1588488722E-03  -0.1335472759E-19   0.1562500000E-03   0.6819874046E-04   0.1024576926E-19   0.2250000000E-03   0.9065013172E-04  -0.2360049685E-19   0.1906567671E+00   0.5047085283E-10   0.5047087873E-10   0.3918887484E-17  -0.6511421045E-17   0.1172163722E-16
   0.1000381250E+01   0.1000000000E+01   0.2933668421E-19   0.1562500000E-03   0.0000000000E+00   0.1769556465E-19   0.2250000000E-03   0.0000000000E+00   0.1164111956E-19   0.1906567671E+00   0.5047096979E-10   0.5047090598E-10  -0.8809155784E-18  -0.1574211085E-16   0.2957964148E-18
   0.0000000000E+00   0.1000000000E+01   0.3961130637E-20   0.0000000000E+00   0.0000000000E+00   0.2182207666E-19   0.0000000000E+00   0.0000000000E+00  -0.1786094602E-19   0.1906567671E+00   0.5047090735E-10   0.5047092445E-10   0.4499359987E-17   0.1468773348E-16   0.6199857665E-17
   0.0000000000E+00   0.1588488722E-03   0.9998411511E+00   0.0000000000E+00   0.6819874046E-04  -0.6819874046E-04   0.0000000000E+00   0.9065013172E-04  -0.9065013172E-04   0.1906567671E+00   0.5047086163E-10   0.5047086993E-10   0.2226440141E-17  -0.8526951643E-18   0.5086303130E-17
   0.1000381250E+01   0.1588488722E-03   0.9998411511E+00   0.1562500000E-03   0.6819874046E-04  -0.6819874046E-04   0.2250000000E-03   0.9065013172E-04  -0.9065013172E-04   0.1906567671E+00   0.5047079918E-10   0.5047076820E-10  -0.1077847595E-16   0.5495138323E-17  -0.1270322717E-16
   0.1000381250E+01   0.1000000000E+01   0.9998411511E+00   0.1562500000E-03   0.0000000000E+00  -0.6819874046E-04   0.2250000000E-03   0.0000000000E+00  -0.9065013172E-04   0.1906567670E+00   0.5047085926E-10   0.5047085232E-10  -0.1354821205E-17   0.1179691483E-16   0.1122515636E-17
   0.0000000000E+00   0.1000000000E+01   0.9998411511E+00   0.0000000000E+00   0.0000000000E+00  -0.6819874046E-04   0.0000000000E+00   0.0000000000E+00  -0.9065013172E-04   0.1906567671E+00   0.5047093696E-10   0.5047093882E-10  -0.4367395986E-17  -0.8065097770E-17  -0.6042195431E-19
     1     2     3     4     5     6     7     8
 VARIABLES = X,Y,Z,DU1,DU2,DU3,U1,U2,U3,S11,S22,S33,S12,S13,S23
 ZONE, T="0.5766D-01" F=FEPOINT, I=    8 J=    1 ET=BRICK
   0.0000000000E+00   0.2464171042E-03   0.0000000000E+00   0.0000000000E+00   0.8756823200E-04   0.0000000000E+00   0.0000000000E+00   0.1588488722E-03   0.0000000000E+00   0.2511848753E+00   0.2274503909E-10   0.2274524186E-10   0.4658659641E-16   0.1063561131E-15   0.1292615581E-16
   0.1000576563E+01   0.2464171042E-03   0.7122732314E-18   0.1953125000E-03   0.8756823200E-04   0.7256279589E-18   0.3812500000E-03   0.1588488722E-03  -0.1335472759E-19   0.2511848752E+00   0.2274539941E-10   0.2274536676E-10   0.5388283504E-16   0.1025456721E-15  -0.8643733584E-16
   0.1000576563E+01   0.1000000000E+01   0.5882863022E-18   0.1953125000E-03   0.0000000000E+00   0.5589496179E-18   0.3812500000E-03   0.0000000000E+00   0.2933668421E-19   0.2511848752E+00   0.2274508716E-10   0.2274516095E-10  -0.4568611810E-17   0.1293690563E-16  -0.1766339737E-16
   0.0000000000E+00   0.1000000000E+01   0.6117038530E-18   0.0000000000E+00   0.0000000000E+00   0.6077427223E-18   0.0000000000E+00   0.0000000000E+00   0.3961130637E-20   0.2511848752E+00   0.2274555243E-10   0.2274557430E-10   0.4255250131E-17  -0.5258199378E-17   0.9487001117E-16
   0.0000000000E+00   0.2464171042E-03   0.9997535829E+00   0.0000000000E+00   0.8756823200E-04  -0.8756823200E-04   0.0000000000E+00   0.1588488722E-03  -0.1588488722E-03   0.2511848752E+00   0.2274526744E-10   0.2274535325E-10   0.6170292150E-16  -0.1097549872E-15  -0.8057657861E-16
   0.1000576563E+01   0.2464171042E-03   0.9997535829E+00   0.1953125000E-03   0.8756823200E-04  -0.8756823200E-04   0.3812500000E-03   0.1588488722E-03  -0.1588488722E-03   0.2511848752E+00   0.2274546830E-10   0.2274518970E-10   0.4589885073E-16  -0.9078430346E-16   0.1203059453E-16
   0.1000576563E+01   0.1000000000E+01   0.9997535829E+00   0.1953125000E-03   0.0000000000E+00  -0.8756823200E-04   0.3812500000E-03   0.0000000000E+00  -0.1588488722E-03   0.2511848752E+00   0.2274531551E-10   0.2274531397E-10   0.4651894203E-18  -0.1432076693E-16   0.9397444988E-16
   0.0000000000E+00   0.1000000000E+01   0.9997535829E+00   0.0000000000E+00   0.0000000000E+00  -0.8756823200E-04   0.0000000000E+00   0.0000000000E+00  -0.1588488722E-03   0.2511848752E+00   0.2274557969E-10   0.2274543887E-10   0.1491596127E-18   0.1123355378E-17  -0.2576305779E-16
     1     2     3     4     5     6     7     8
 VARIABLES = X,Y,Z,DU1,DU2,DU3,U1,U2,U3,S11,S22,S33,S12,S13,S23
 ZONE, T="0.8207D-01" F=FEPOINT, I=    8 J=    1 ET=BRICK
   0.0000000000E+00   0.3580036157E-03   0.0000000000E+00   0.0000000000E+00   0.1115865115E-03   0.0000000000E+00   0.0000000000E+00   0.2464171042E-03   0.0000000000E+00   0.3140876815E+00   0.1295266910E-10   0.1295263626E-10  -0.1493522851E-16  -0.1294546116E-16   0.2740314489E-17
   0.1000820703E+01   0.3580036157E-03  -0.3698500295E-19   0.2441406250E-03   0.1115865115E-03  -0.7492582343E-18   0.5765625000E-03   0.2464171042E-03   0.7122732314E-18   0.3140876815E+00   0.1295244977E-10   0.1295251544E-10   0.7058194156E-17   0.6025222057E-17   0.8425678040E-17
   0.1000820703E+01   0.1000000000E+01  -0.8394632107E-19   0.2441406250E-03   0.0000000000E+00  -0.6722326232E-18   0.5765625000E-03   0.0000000000E+00   0.5882863022E-18   0.3140876815E+00   0.1295213022E-10   0.1295212142E-10  -0.3454982253E-17   0.7711882478E-17  -0.4600519571E-17
   0.0000000000E+00   0.1000000000E+01  -0.8068624156E-19   0.0000000000E+00   0.0000000000E+00  -0.6923900945E-18   0.0000000000E+00   0.0000000000E+00   0.6117038530E-18   0.3140876815E+00   0.1295203580E-10   0.1295201176E-10   0.1906860420E-17  -0.2004382733E-17  -0.1795124211E-16
   0.0000000000E+00   0.3580036157E-03   0.9996419964E+00   0.0000000000E+00   0.1115865115E-03  -0.1115865115E-03   0.0000000000E+00   0.2464171042E-03  -0.2464171042E-03   0.3140876815E+00   0.1295237059E-10   0.1295233775E-10   0.2213592247E-17   0.2862697405E-16   0.5954762297E-17
   0.1000820703E+01   0.3580036157E-03   0.9996419964E+00   0.2441406250E-03   0.1115865115E-03  -0.1115865115E-03   0.5765625000E-03   0.2464171042E-03  -0.2464171042E-03   0.3140876815E+00   0.1295213194E-10   0.1295215598E-10  -0.1939916740E-16  -0.1040951165E-16   0.2377446324E-17
   0.1000820703E+01   0.1000000000E+01   0.9996419964E+00   0.2441406250E-03   0.0000000000E+00  -0.1115865115E-03   0.5765625000E-03   0.0000000000E+00  -0.2464171042E-03   0.3140876814E+00   0.1295278928E-10   0.1295278048E-10   0.1301671697E-16   0.4255735249E-17  -0.1289713795E-16
   0.0000000000E+00   0.1000000000E+01   0.9996419964E+00   0.0000000000E+00   0.0000000000E+00  -0.1115865115E-03   0.0000000000E+00   0.0000000000E+00  -0.2464171042E-03   0.3140876815E+00   0.1295242573E-10   0.1295244333E-10  -0.1741256762E-18  -0.7266611024E-17   0.6470995496E-17
     1     2     3     4     5     6     7     8
 VARIABLES = X,Y,Z,DU1,DU2,DU3,U1,U2,U3,S11,S22,S33,S12,S13,S23
 ZONE, T="0.1126D+00" F=FEPOINT, I=    8 J=    1 ET=BRICK
   0.0000000000E+00   0.4995687907E-03   0.0000000000E+00   0.0000000000E+00   0.1415651750E-03   0.0000000000E+00   0.0000000000E+00   0.3580036157E-03   0.0000000000E+00   0.3802239753E+00   0.8575385332E-11   0.8575456082E-11   0.2010473096E-16  -0.1414758708E-16   0.9982955981E-17
   0.1001125879E+01   0.4995687907E-03   0.4070907346E-19   0.3051757813E-03   0.1415651750E-03   0.7769407641E-19   0.8207031250E-03   0.3580036157E-03  -0.3698500295E-19   0.3802239752E+00   0.8575095161E-11   0.8575076203E-11   0.7164705368E-17   0.2368473370E-16  -0.2058210566E-16
   0.1001125879E+01   0.1000000000E+01   0.1784193426E-18   0.3051757813E-03   0.0000000000E+00   0.2623656637E-18   0.8207031250E-03   0.0000000000E+00  -0.8394632107E-19   0.3802239752E+00   0.8575385330E-11   0.8575456080E-11   0.4199242348E-17  -0.8674675358E-17   0.1937333809E-16
   0.0000000000E+00   0.1000000000E+01   0.1512267600E-18   0.0000000000E+00   0.0000000000E+00   0.2319130015E-18   0.0000000000E+00   0.0000000000E+00  -0.8068624156E-19   0.3802239752E+00   0.8575567735E-11   0.8575531181E-11  -0.1773707387E-17   0.8766121362E-17   0.1804207010E-16
   0.0000000000E+00   0.4995687907E-03   0.9995004312E+00   0.0000000000E+00   0.1415651750E-03  -0.1415651750E-03   0.0000000000E+00   0.3580036157E-03  -0.3580036157E-03   0.3802239752E+00   0.8575409368E-11   0.8575408007E-11  -0.1707818061E-16  -0.7473533086E-17  -0.1065528676E-16
   0.1001125879E+01   0.4995687907E-03   0.9995004312E+00   0.3051757813E-03   0.1415651750E-03  -0.1415651750E-03   0.8207031250E-03   0.3580036157E-03  -0.3580036157E-03   0.3802239752E+00   0.8575976363E-11   0.8575915773E-11   0.2396511131E-16  -0.1302607822E-16  -0.1318770053E-16
   0.1001125879E+01   0.1000000000E+01   0.9995004312E+00   0.3051757813E-03   0.0000000000E+00  -0.1415651750E-03   0.8207031250E-03   0.0000000000E+00  -0.3580036157E-03   0.3802239751E+00   0.8575409366E-11   0.8575408005E-11  -0.1455687925E-16   0.1107645538E-16   0.1032614065E-16
   0.0000000000E+00   0.1000000000E+01   0.9995004312E+00   0.0000000000E+00   0.0000000000E+00  -0.1415651750E-03   0.0000000000E+00   0.0000000000E+00  -0.3580036157E-03   0.3802239752E+00   0.8576032604E-11   0.8576037684E-11   0.3732859553E-17  -0.1196124478E-17  -0.8742248090E-17
     1     2     3     4     5     6     7     8
 VARIABLES = X,Y,Z,DU1,DU2,DU3,U1,U2,U3,S11,S22,S33,S12,S13,S23
 ZONE, T="0.1507D+00" F=FEPOINT, I=    8 J=    1 ET=BRICK
   0.0000000000E+00   0.6786573257E-03   0.0000000000E+00   0.0000000000E+00   0.1790885350E-03   0.0000000000E+00   0.0000000000E+00   0.4995687907E-03   0.0000000000E+00   0.4501019449E+00   0.6331185488E-11   0.6331127255E-11   0.2350667602E-17   0.2041782612E-16   0.1134841925E-16
   0.1001507349E+01   0.6786573257E-03   0.1421564683E-18   0.3814697266E-03   0.1790885350E-03   0.1014473949E-18   0.1125878906E-02   0.4995687907E-03   0.4070907346E-19   0.4501019448E+00   0.6332356399E-11   0.6332298166E-11   0.1687058833E-16  -0.1223419474E-16   0.6492131278E-18
   0.1001507349E+01   0.1000000000E+01  -0.8167881221E-19   0.3814697266E-03   0.0000000000E+00  -0.2600981548E-18   0.1125878906E-02   0.0000000000E+00   0.1784193426E-18   0.4501019448E+00   0.6332446106E-11   0.6332304606E-11  -0.7963393202E-17   0.1723727934E-16  -0.1931975157E-16
   0.0000000000E+00   0.1000000000E+01  -0.8545503513E-19   0.0000000000E+00   0.0000000000E+00  -0.2366817951E-18   0.0000000000E+00   0.0000000000E+00   0.1512267600E-18   0.4501019448E+00   0.6332171006E-11   0.6332256995E-11  -0.9830865047E-17  -0.3848988060E-17  -0.1230048997E-16
   0.0000000000E+00   0.6786573257E-03   0.9993213427E+00   0.0000000000E+00   0.1790885350E-03  -0.1790885350E-03   0.0000000000E+00   0.4995687907E-03  -0.4995687907E-03   0.4501019448E+00   0.6332325921E-11   0.6332328643E-11  -0.4942601238E-17  -0.1357476749E-16  -0.7538671211E-17
   0.1001507349E+01   0.6786573257E-03   0.9993213427E+00   0.3814697266E-03   0.1790885350E-03  -0.1790885350E-03   0.1125878906E-02   0.4995687907E-03  -0.4995687907E-03   0.4501019448E+00   0.6331185487E-11   0.6331127254E-11   0.3668928889E-16   0.1065079610E-16   0.3724045416E-16
   0.1001507349E+01   0.1000000000E+01   0.9993213427E+00   0.3814697266E-03   0.0000000000E+00  -0.1790885350E-03   0.1125878906E-02   0.0000000000E+00  -0.4995687907E-03   0.4501019447E+00   0.6332171004E-11   0.6332256993E-11  -0.2362811852E-16  -0.4030003561E-16  -0.3151368025E-17
   0.0000000000E+00   0.1000000000E+01   0.9993213427E+00   0.0000000000E+00   0.0000000000E+00  -0.1790885350E-03   0.0000000000E+00   0.0000000000E+00  -0.4995687907E-03   0.4501019448E+00   0.6332332361E-11   0.6332418350E-11   0.1626642787E-16   0.1223419439E-16  -0.4486130589E-17
     1     2     3     4     5     6     7     8
 VARIABLES = X,Y,Z,DU1,DU2,DU3,U1,U2,U3,S11,S22,S33,S12,S13,S23
 ZONE, T="0.1984D+00" F=FEPOINT, I=    8 J=    1 ET=BRICK
   0.0000000000E+00   0.9047753046E-03   0.0000000000E+00   0.0000000000E+00   0.2261179788E-03   0.0000000000E+00   0.0000000000E+00   0.6786573257E-03   0.0000000000E+00   0.5239055466E+00   0.5100169662E-11   0.5100266807E-11  -0.4324139955E-16   0.1805873983E-17   0.1424391365E-16
   0.1001984186E+01   0.9047753046E-03  -0.5105772331E-19   0.4768371582E-03   0.2261179788E-03  -0.1932141916E-18   0.1507348633E-02   0.6786573257E-03   0.1421564683E-18   0.5239055465E+00   0.5098937795E-11   0.5098964554E-11   0.3127185639E-16   0.1567896128E-16  -0.1837328774E-16
   0.1001984186E+01   0.1000000000E+01   0.1353457734E-18   0.4768371582E-03   0.0000000000E+00   0.2170245856E-18   0.1507348633E-02   0.0000000000E+00  -0.8167881221E-19   0.5239055464E+00   0.5100304454E-11   0.5100270257E-11  -0.9547864476E-17  -0.2018496564E-16   0.1167187761E-16
   0.0000000000E+00   0.1000000000E+01   0.3445820100E-18   0.0000000000E+00   0.0000000000E+00   0.4300370451E-18   0.0000000000E+00   0.0000000000E+00  -0.8545503513E-19   0.5239055465E+00   0.5098798288E-11   0.5098812166E-11  -0.4919179217E-17  -0.2897366223E-16   0.2396449085E-16
   0.0000000000E+00   0.9047753046E-03   0.9990952247E+00   0.0000000000E+00   0.2261179788E-03  -0.2261179788E-03   0.0000000000E+00   0.6786573257E-03  -0.6786573257E-03   0.5239055465E+00   0.5099078566E-11   0.5099140518E-11   0.8011791046E-17   0.4824247494E-17  -0.2211716646E-16
   0.1001984186E+01   0.9047753046E-03   0.9990952247E+00   0.4768371582E-03   0.2261179788E-03  -0.2261179788E-03   0.1507348633E-02   0.6786573257E-03  -0.6786573257E-03   0.5239055464E+00   0.5100168398E-11   0.5100182276E-11  -0.4269905087E-16  -0.1034977739E-16  -0.1275116607E-16
   0.1001984186E+01   0.1000000000E+01   0.9990952247E+00   0.4768371582E-03   0.0000000000E+00  -0.2261179788E-03   0.1507348633E-02   0.0000000000E+00  -0.6786573257E-03   0.5239055464E+00   0.5099712957E-11   0.5099810102E-11   0.2327246345E-16   0.3905363899E-16  -0.1187302609E-17
   0.0000000000E+00   0.1000000000E+01   0.9990952247E+00   0.0000000000E+00   0.0000000000E+00  -0.2261179788E-03   0.0000000000E+00   0.0000000000E+00  -0.6786573257E-03   0.5239055464E+00   0.5099779091E-11   0.5099613553E-11  -0.3315349559E-17   0.1780740663E-16   0.4241426355E-17
     1     2     3     4     5     6     7     8
 VARIABLES = X,Y,Z,DU1,DU2,DU3,U1,U2,U3,S11,S22,S33,S12,S13,S23
 ZONE, T="0.2580D+00" F=FEPOINT, I=    8 J=    1 ET=BRICK
   0.0000000000E+00   0.1189878533E-02   0.0000000000E+00   0.0000000000E+00   0.2851032281E-03   0.0000000000E+00   0.0000000000E+00   0.9047753046E-03   0.0000000000E+00   0.6014255216E+00   0.4430543893E-11   0.4430628521E-11  -0.1475417064E-16  -0.3630527323E-16  -0.4886102319E-16
   0.1002580232E+01   0.1189878533E-02  -0.3398542891E-18   0.5960464478E-03   0.2851032281E-03  -0.2887965658E-18   0.1984185791E-02   0.9047753046E-03  -0.5105772331E-19   0.6014255215E+00   0.4432174497E-11   0.4432151821E-11   0.2259128136E-16  -0.2019134465E-17   0.4440552721E-16
   0.1002580232E+01   0.1000000000E+01  -0.8429497770E-19   0.5960464478E-03   0.0000000000E+00  -0.2196407511E-18   0.1984185791E-02   0.0000000000E+00   0.1353457734E-18   0.6014255214E+00   0.4432195082E-11   0.4432165965E-11   0.2280282246E-17   0.1011516978E-17   0.1165804839E-16
   0.0000000000E+00   0.1000000000E+01  -0.4123675853E-18   0.0000000000E+00   0.0000000000E+00  -0.7569495952E-18   0.0000000000E+00   0.0000000000E+00   0.3445820100E-18   0.6014255215E+00   0.4428884999E-11   0.4428993664E-11  -0.1204499754E-17   0.3139400017E-16  -0.3383331153E-16
   0.0000000000E+00   0.1189878533E-02   0.9988101215E+00   0.0000000000E+00   0.2851032281E-03  -0.2851032281E-03   0.0000000000E+00   0.9047753046E-03  -0.9047753046E-03   0.6014255215E+00   0.4432699860E-11   0.4432742854E-11   0.5556828480E-17   0.2020273014E-16   0.1563671471E-16
   0.1002580232E+01   0.1189878533E-02   0.9988101215E+00   0.5960464478E-03   0.2851032281E-03  -0.2851032281E-03   0.1984185791E-02   0.9047753046E-03  -0.9047753046E-03   0.6014255214E+00   0.4430014739E-11   0.4430003219E-11  -0.1852339916E-16   0.2062819891E-16  -0.1791864419E-16
   0.1002580232E+01   0.1000000000E+01   0.9988101215E+00   0.5960464478E-03   0.0000000000E+00  -0.2851032281E-03   0.1984185791E-02   0.0000000000E+00  -0.9047753046E-03   0.6014255214E+00   0.4431769780E-11   0.4431782297E-11   0.1286245443E-16  -0.1828425616E-16  -0.3856329795E-16
   0.0000000000E+00   0.1000000000E+01   0.9988101215E+00   0.0000000000E+00   0.0000000000E+00  -0.2851032281E-03   0.0000000000E+00   0.0000000000E+00  -0.9047753046E-03   0.6014255214E+00   0.4432054311E-11   0.4432007598E-11  -0.5025343704E-17  -0.2986979875E-16   0.3153337055E-16
     1     2     3     4     5     6     7     8
 VARIABLES = X,Y,Z,DU1,DU2,DU3,U1,U2,U3,S11,S22,S33,S12,S13,S23
 ZONE, T="0.3325D+00" F=FEPOINT, I=    8 J=    1 ET=BRICK
   0.0000000000E+00   0.1548995006E-02   0.0000000000E+00   0.0000000000E+00   0.3591164731E-03   0.0000000000E+00   0.0000000000E+00   0.1189878533E-02   0.0000000000E+00   0.6819008623E+00   0.4144590545E-11   0.4144829189E-11   0.2967884925E-16   0.3291004205E-16   0.6134603337E-16
   0.1003325290E+01   0.1548995006E-02   0.1577247313E-19   0.7450580597E-03   0.3591164731E-03   0.3556267622E-18   0.2580232239E-02   0.1189878533E-02  -0.3398542891E-18   0.6819008622E+00   0.4147155942E-11   0.4146869223E-11  -0.2973779480E-16  -0.4025113046E-16  -0.8343615420E-17
   0.1003325290E+01   0.1000000000E+01  -0.3282018992E-18   0.7450580597E-03   0.0000000000E+00  -0.2439069215E-18   0.2580232239E-02   0.0000000000E+00  -0.8429497770E-19   0.6819008622E+00   0.4144937755E-11   0.4144979389E-11  -0.7893482212E-17   0.3569058470E-17  -0.1667127991E-16
   0.0000000000E+00   0.1000000000E+01  -0.1035663610E-18   0.0000000000E+00   0.0000000000E+00   0.3088012243E-18   0.0000000000E+00   0.0000000000E+00  -0.4123675853E-18   0.6819008622E+00   0.4143946259E-11   0.4143891744E-11  -0.1091425936E-16  -0.4183414124E-16  -0.2051592437E-16
   0.0000000000E+00   0.1548995006E-02   0.9984510050E+00   0.0000000000E+00   0.3591164731E-03  -0.3591164731E-03   0.0000000000E+00   0.1189878533E-02  -0.1189878533E-02   0.6819008622E+00   0.4145250237E-11   0.4145291871E-11  -0.3334377702E-16  -0.2229172087E-16   0.1904123840E-16
   0.1003325290E+01   0.1548995006E-02   0.9984510050E+00   0.7450580597E-03   0.3591164731E-03  -0.3591164731E-03   0.2580232239E-02   0.1189878533E-02  -0.1189878533E-02   0.6819008622E+00   0.4145075999E-11   0.4145213781E-11  -0.1883511848E-17   0.3164332525E-16   0.2217489565E-16
   0.1003325290E+01   0.1000000000E+01   0.9984510050E+00   0.7450580597E-03   0.0000000000E+00  -0.3591164731E-03   0.2580232239E-02   0.0000000000E+00  -0.1189878533E-02   0.6819008621E+00   0.4144181914E-11   0.4144276336E-11   0.5870509178E-17   0.9512194802E-17  -0.1418388124E-16
   0.0000000000E+00   0.1000000000E+01   0.9984510050E+00   0.0000000000E+00   0.0000000000E+00  -0.3591164731E-03   0.0000000000E+00   0.0000000000E+00  -0.1189878533E-02   0.6819008622E+00   0.4146362719E-11   0.4146316371E-11   0.5564228382E-17   0.4143610968E-16  -0.1203801651E-16
     1     2     3     4     5     6     7     8
 VARIABLES = X,Y,Z,DU1,DU2,DU3,U1,U2,U3,S11,S22,S33,S12,S13,S23
 ZONE, T="0.4257D+00" F=FEPOINT, I=    8 J=    1 ET=BRICK
   0.0000000000E+00   0.2001016230E-02   0.0000000000E+00   0.0000000000E+00   0.4520212244E-03   0.0000000000E+00   0.0000000000E+00   0.1548995006E-02   0.0000000000E+00   0.7637412397E+00   0.4192812041E-11   0.4192746371E-11  -0.2929765848E-17   0.2379171890E-16   0.7167681161E-16
   0.1004256613E+01   0.2001016230E-02   0.3650200185E-18   0.9313225746E-03   0.4520212244E-03   0.3492475453E-18   0.3325290298E-02   0.1548995006E-02   0.1577247313E-19   0.7637412396E+00   0.4196246685E-11   0.4196132941E-11  -0.1095576155E-16  -0.2160536027E-16  -0.2081450699E-16
   0.1004256613E+01   0.1000000000E+01  -0.1114089242E-18   0.9313225746E-03   0.0000000000E+00   0.2167929750E-18   0.3325290298E-02   0.0000000000E+00  -0.3282018992E-18   0.7637412395E+00   0.4193994107E-11   0.4194059778E-11  -0.1243781585E-16   0.1568606338E-16  -0.1986871349E-16
   0.0000000000E+00   0.1000000000E+01   0.2770710848E-18   0.0000000000E+00   0.0000000000E+00   0.3806374458E-18   0.0000000000E+00   0.0000000000E+00  -0.1035663610E-18   0.7637412396E+00   0.4196246685E-11   0.4196132941E-11   0.3930963040E-17  -0.2394851027E-16   0.7983063803E-17
   0.0000000000E+00   0.2001016230E-02   0.9979989838E+00   0.0000000000E+00   0.4520212244E-03  -0.4520212244E-03   0.0000000000E+00   0.1548995006E-02  -0.1548995006E-02   0.7637412396E+00   0.4193657589E-11   0.4193675185E-11  -0.4359416243E-16   0.1532794739E-16   0.1260308820E-17
   0.1004256613E+01   0.2001016230E-02   0.9979989838E+00   0.9313225746E-03   0.4520212244E-03  -0.4520212244E-03   0.3325290298E-02   0.1548995006E-02  -0.1548995006E-02   0.7637412395E+00   0.4192737278E-11   0.4192767756E-11   0.2935740622E-16  -0.2103256553E-17   0.3233514970E-16
   0.1004256613E+01   0.1000000000E+01   0.9979989838E+00   0.9313225746E-03   0.0000000000E+00  -0.4520212244E-03   0.3325290298E-02   0.0000000000E+00  -0.1548995006E-02   0.7637412394E+00   0.4193340854E-11   0.4193323258E-11  -0.4720357520E-17   0.6602011684E-17  -0.2143411504E-16
   0.0000000000E+00   0.1000000000E+01   0.9979989838E+00   0.0000000000E+00   0.0000000000E+00  -0.4520212244E-03   0.0000000000E+00   0.0000000000E+00  -0.1548995006E-02   0.7637412395E+00   0.4192737278E-11   0.4192767756E-11   0.1447068163E-16   0.1850396052E-16  -0.2260510534E-16
     1     2     3     4     5     6     7     8
 VARIABLES = X,Y,Z,DU1,DU2,DU3,U1,U2,U3,S11,S22,S33,S12,S13,S23
 ZONE, T="0.5257D+00" F=FEPOINT, I=    8 J=    1 ET=BRICK
   0.0000000000E+00   0.2489307237E-02   0.0000000000E+00   0.0000000000E+00   0.4882910064E-03   0.0000000000E+00   0.0000000000E+00   0.2001016230E-02   0.0000000000E+00   0.8339952015E+00   0.4075626901E-13   0.4047326897E-13   0.4893324361E-16  -0.5055039471E-16  -0.1302791349E-16
   0.1005256613E+01   0.2489307237E-02  -0.7834827287E-18   0.1000000000E-02   0.4882910064E-03  -0.1148502747E-17   0.4256612873E-02   0.2001016230E-02   0.3650200185E-18   0.8339952014E+00   0.4052095220E-13   0.4063197447E-13  -0.5528491392E-16  -0.2572693336E-16  -0.8402477140E-17
   0.1005256613E+01   0.1000000000E+01  -0.3859136702E-18   0.1000000000E-02   0.0000000000E+00  -0.2745047460E-18   0.4256612873E-02   0.0000000000E+00  -0.1114089242E-18   0.8339952013E+00   0.4265161885E-13   0.4246476694E-13   0.3752680246E-16   0.2355159326E-16   0.2048099060E-16
   0.0000000000E+00   0.1000000000E+01  -0.7301674132E-18   0.0000000000E+00   0.0000000000E+00  -0.1007238498E-17   0.0000000000E+00   0.0000000000E+00   0.2770710848E-18   0.8339952014E+00   0.3623317887E-13   0.3644034927E-13  -0.2200931987E-17   0.2270507666E-16  -0.4030908312E-16
   0.0000000000E+00   0.2489307237E-02   0.9975106928E+00   0.0000000000E+00   0.4882910064E-03  -0.4882910064E-03   0.0000000000E+00   0.2001016230E-02  -0.2001016230E-02   0.8339952014E+00   0.4164206372E-13   0.4155135992E-13  -0.2439412462E-16   0.1436971012E-17   0.3059053239E-16
   0.1005256613E+01   0.2489307237E-02   0.9975106928E+00   0.1000000000E-02   0.4882910064E-03  -0.4882910064E-03   0.4256612873E-02   0.2001016230E-02  -0.2001016230E-02   0.8339952013E+00   0.3656969710E-13   0.3658457127E-13   0.3065506654E-16   0.1322738527E-16  -0.4925693251E-17
   0.1005256613E+01   0.1000000000E+01   0.9975106928E+00   0.1000000000E-02   0.0000000000E+00  -0.4882910064E-03   0.4256612873E-02   0.0000000000E+00  -0.2001016230E-02   0.8339952012E+00   0.3820834383E-13   0.3821378815E-13  -0.1172399093E-16   0.1042276794E-16   0.7191168668E-17
   0.0000000000E+00   0.1000000000E+01   0.9975106928E+00   0.0000000000E+00   0.0000000000E+00  -0.4882910064E-03   0.0000000000E+00   0.0000000000E+00  -0.2001016230E-02   0.8339952013E+00   0.4210739609E-13   0.4221841838E-13  -0.6000912290E-17  -0.4942116590E-16   0.2445352763E-16
     1     2     3     4     5     6     7     8
 VARIABLES = X,Y,Z,DU1,DU2,DU3,U1,U2,U3,S11,S22,S33,S12,S13,S23
 ZONE, T="0.6257D+00" F=FEPOINT, I=    8 J=    1 ET=BRICK
   0.0000000000E+00   0.2980028602E-02   0.0000000000E+00   0.0000000000E+00   0.4907213658E-03   0.0000000000E+00   0.0000000000E+00   0.2489307237E-02   0.0000000000E+00   0.8896669957E+00   0.5443769967E-08   0.5443769874E-08  -0.9431926849E-17  -0.1311855544E-16  -0.5679606469E-18