 VARIABLES = X,Y,Z
 ZONE, T="zone1" F=FEPOINT, I=    8 J=    1 ET=BRICK
   0.0000000000E+00   0.0000000000E+00   0.0000000000E+00
   0.1000000000E+01   0.0000000000E+00   0.0000000000E+00
   0.1000000000E+01   0.1000000000E+01   0.0000000000E+00
   0.0000000000E+00   0.1000000000E+01   0.0000000000E+00
   0.0000000000E+00   0.0000000000E+00   0.1000000000E+01
   0.1000000000E+01   0.0000000000E+00   0.1000000000E+01
   0.1000000000E+01   0.1000000000E+01   0.1000000000E+01
   0.0000000000E+00   0.1000000000E+01   0.1000000000E+01
     1     2     3     4     5     6     7     8
