 VARIABLES = X,Y,DU1,DU2,U1,U2,S11,S22,S33,S12
 ZONE, T="0.1000D+01" F=FEPOINT, I=  281 J=  250
   0.1776219040E-01   0.1342015212E+00   0.7173700808E-05  -0.3627480944E-04   0.0000000000E+00   0.0000000000E+00   0.4298113056E-01   0.8091668001E-02   0.0000000000E+00   0.6414525988E-03
   0.0000000000E+00   0.1332962157E+00   0.0000000000E+00  -0.3712433844E-04   0.0000000000E+00   0.0000000000E+00   0.4336435997E-01   0.8629370251E-02   0.0000000000E+00   0.1215743930E-02
   0.0000000000E+00   0.1166306905E+00   0.0000000000E+00  -0.3597650796E-04   0.0000000000E+00   0.0000000000E+00   0.5515689421E-01   0.4534239481E-02   0.0000000000E+00   0.1046502822E-02
   0.1916414406E-01   0.1162562403E+00   0.1000706109E-04  -0.3494770620E-04   0.0000000000E+00   0.0000000000E+00   0.5054499995E-01   0.4474806890E-02   0.0000000000E+00  -0.4502547359E-02
   0.7802001526E-01   0.2318422409E+00   0.1851606492E-04  -0.3416214462E-04   0.0000000000E+00   0.0000000000E+00   0.2645003495E-01  -0.8420543003E-05   0.0000000000E+00   0.1821795984E-02
   0.9780187799E-01   0.2320246511E+00   0.2387809382E-04  -0.3061086520E-04   0.0000000000E+00   0.0000000000E+00   0.2797315444E-01  -0.1387037986E-03   0.0000000000E+00   0.1659666511E-02
   0.9724316290E-01   0.2499677865E+00   0.2093899991E-04  -0.3221346831E-04   0.0000000000E+00   0.0000000000E+00   0.2731044673E-01  -0.9915065997E-04   0.0000000000E+00   0.5855126702E-03
   0.7779364916E-01   0.2499644057E+00   0.1586856091E-04  -0.3559431363E-04   0.0000000000E+00   0.0000000000E+00   0.2474155673E-01  -0.1536946896E-03   0.0000000000E+00   0.6478984011E-03
   0.1910238492E-01   0.2332811256E+00   0.4194324500E-05  -0.4170336085E-04   0.0000000000E+00   0.0000000000E+00   0.2235752641E-01   0.5340376471E-03   0.0000000000E+00   0.5101693962E-03
   0.0000000000E+00   0.2332910807E+00   0.0000000000E+00  -0.4225327452E-04   0.0000000000E+00   0.0000000000E+00   0.2199515558E-01   0.5708677966E-03   0.0000000000E+00   0.6447966377E-03
   0.0000000000E+00   0.2166254594E+00   0.0000000000E+00  -0.4120955512E-04   0.0000000000E+00   0.0000000000E+00   0.2507606047E-01   0.1286201231E-02   0.0000000000E+00   0.6537352829E-03
   0.1853688910E-01   0.2167339371E+00   0.4594296533E-05  -0.4067589180E-04   0.0000000000E+00   0.0000000000E+00   0.2531966658E-01   0.1181546340E-02   0.0000000000E+00   0.1023844522E-02
   0.2572888131E+00   0.9227279027E-01   0.8332712020E-04  -0.1480726220E-05   0.0000000000E+00   0.0000000000E+00   0.1863962946E-01   0.1748904019E-02   0.0000000000E+00  -0.2548239298E-02
   0.2586834097E+00   0.1102836891E+00   0.8213167433E-04  -0.2240886236E-05   0.0000000000E+00   0.0000000000E+00   0.2035720993E-01   0.1290074377E-02   0.0000000000E+00  -0.2448721304E-02
   0.2419342545E+00   0.1106740435E+00   0.7872254551E-04  -0.2625452180E-05   0.0000000000E+00   0.0000000000E+00   0.2056351884E-01   0.6903282207E-03   0.0000000000E+00  -0.2883859442E-02
   0.2394601773E+00   0.9267953908E-01   0.8004134111E-04  -0.1779416926E-05   0.0000000000E+00   0.0000000000E+00   0.1869635381E-01   0.1120968037E-02   0.0000000000E+00  -0.3101872257E-02
   0.9245912452E-01   0.3825758948E-01   0.7117262020E-04  -0.1075312325E-04   0.0000000000E+00   0.0000000000E+00  -0.2335783728E-02  -0.1568528479E-01   0.0000000000E+00   0.2428165100E-02
   0.1081163276E+00   0.4609181454E-01   0.6946764023E-04  -0.6726961335E-05   0.0000000000E+00   0.0000000000E+00   0.5040675797E-02  -0.6981167314E-02   0.0000000000E+00  -0.3360238182E-02
   0.9617264920E-01   0.6353063836E-01   0.6155280127E-04  -0.1155633551E-04   0.0000000000E+00   0.0000000000E+00   0.1043862381E-01  -0.4106354286E-02   0.0000000000E+00  -0.5036284467E-02
   0.8321135234E-01   0.5554079021E-01   0.6439283980E-04  -0.1623348976E-04   0.0000000000E+00   0.0000000000E+00   0.3028716456E-02  -0.3454667077E-02   0.0000000000E+00  -0.1549105701E-02
   0.9815356891E-01   0.1950372225E-01   0.7504231292E-04  -0.5310154320E-05   0.0000000000E+00   0.0000000000E+00  -0.2321827724E-02  -0.2504457822E-01   0.0000000000E+00   0.3388808751E-02
   0.1000766902E+00   0.0000000000E+00   0.7668918340E-04   0.0000000000E+00   0.0000000000E+00   0.0000000000E+00  -0.3262738724E-02  -0.2690911054E-01   0.0000000000E+00  -0.1845922648E-02
   0.1209110226E+00   0.0000000000E+00   0.7769259034E-04   0.0000000000E+00   0.0000000000E+00   0.0000000000E+00  -0.1710857757E-04  -0.9251262731E-02   0.0000000000E+00  -0.2068689335E-02
   0.1218062454E+00   0.2610986502E-01   0.7538143686E-04  -0.2443679755E-05   0.0000000000E+00   0.0000000000E+00   0.2355796656E-02  -0.8711274379E-02   0.0000000000E+00  -0.2195919469E-02
   0.2106251114E+00   0.3763284513E-01   0.8097243763E-04  -0.3876730188E-06   0.0000000000E+00   0.0000000000E+00   0.1213787771E-01   0.1859101657E-02   0.0000000000E+00  -0.2824219113E-02
   0.1905365786E+00   0.3838192812E-01   0.7866855081E-04  -0.5722780739E-06   0.0000000000E+00   0.0000000000E+00   0.1095244746E-01   0.7127708287E-03   0.0000000000E+00  -0.3635508235E-02
   0.1867880458E+00   0.1901268563E-01   0.7989382484E-04  -0.2349657289E-06   0.0000000000E+00   0.0000000000E+00   0.8661316795E-02   0.1137337666E-02   0.0000000000E+00  -0.1774933520E-02
   0.2073140652E+00   0.1873787757E-01   0.8178322220E-04  -0.1463252366E-06   0.0000000000E+00   0.0000000000E+00   0.1054831605E-01   0.2162032589E-02   0.0000000000E+00  -0.1407398091E-02
   0.1574670800E+00   0.2159385856E+00   0.4373295765E-04  -0.1886243751E-04   0.0000000000E+00   0.0000000000E+00   0.3024194348E-01  -0.6646188425E-03   0.0000000000E+00   0.7983564662E-03
   0.1564939630E+00   0.2325848963E+00   0.4129203372E-04  -0.2060565788E-04   0.0000000000E+00   0.0000000000E+00   0.3099303410E-01  -0.2802237474E-03   0.0000000000E+00   0.4990252770E-03
   0.1370146645E+00   0.2326064667E+00   0.3529354858E-04  -0.2366734658E-04   0.0000000000E+00   0.0000000000E+00   0.3034806143E-01  -0.2899803247E-03   0.0000000000E+00   0.8933159737E-03
   0.1382530298E+00   0.2157909144E+00   0.3791982871E-04  -0.2185864502E-04   0.0000000000E+00   0.0000000000E+00   0.3001772596E-01  -0.7394214135E-03   0.0000000000E+00   0.1477779681E-02
   0.0000000000E+00   0.9996680020E-01   0.0000000000E+00  -0.3320080307E-04   0.0000000000E+00   0.0000000000E+00   0.8210764044E-01   0.5706868121E-02   0.0000000000E+00   0.1152803953E-02
   0.1952450480E-01   0.9804632225E-01   0.1547240370E-04  -0.3220434981E-04   0.0000000000E+00   0.0000000000E+00   0.7602026516E-01   0.5718136681E-02   0.0000000000E+00  -0.1141142076E-01
   0.1680491119E-01   0.1512995275E+00   0.5852394331E-05  -0.3718747266E-04   0.0000000000E+00   0.0000000000E+00   0.3675171764E-01   0.6222643242E-02   0.0000000000E+00   0.1106229289E-02
   0.0000000000E+00   0.1499621999E+00   0.0000000000E+00  -0.3780606723E-04   0.0000000000E+00   0.0000000000E+00   0.3711268542E-01   0.7081500214E-02   0.0000000000E+00   0.9289379163E-03
   0.5107385144E-01   0.1386384203E+00   0.1954134279E-04  -0.3121966648E-04   0.0000000000E+00   0.0000000000E+00   0.3798490579E-01   0.2416036489E-02   0.0000000000E+00   0.1912229159E-02
   0.4906374087E-01   0.1540270873E+00   0.1683707346E-04  -0.3288874068E-04   0.0000000000E+00   0.0000000000E+00   0.3519226791E-01   0.2659599131E-02   0.0000000000E+00   0.3063745769E-02
   0.3318692857E-01   0.1527010332E+00   0.1146386679E-04  -0.3542183320E-04   0.0000000000E+00   0.0000000000E+00   0.3616540173E-01   0.4711770955E-02   0.0000000000E+00   0.2333483478E-02
   0.3438507916E-01   0.1357056517E+00   0.1360255597E-04  -0.3413630513E-04   0.0000000000E+00   0.0000000000E+00   0.3999968171E-01   0.4895033073E-02   0.0000000000E+00   0.2369035105E-02
   0.1668992605E-01   0.1677651682E+00   0.5259745871E-05  -0.3796982941E-04   0.0000000000E+00   0.0000000000E+00   0.3319899499E-01   0.5147438382E-02   0.0000000000E+00   0.1361687679E-02
   0.0000000000E+00   0.1666281804E+00   0.0000000000E+00  -0.3849155194E-04   0.0000000000E+00   0.0000000000E+00   0.3323183073E-01   0.5614048711E-02   0.0000000000E+00   0.7842628378E-03
   0.1709644152E-01   0.1840867370E+00   0.4979124603E-05  -0.3879096543E-04   0.0000000000E+00   0.0000000000E+00   0.3034978134E-01   0.3629443515E-02   0.0000000000E+00   0.1334805736E-02
   0.3340103855E-01   0.1685705281E+00   0.1052775111E-04  -0.3636385582E-04   0.0000000000E+00   0.0000000000E+00   0.3297279123E-01   0.3766170882E-02   0.0000000000E+00   0.2929458268E-02
   0.3452340210E-01   0.1842420216E+00   0.1009999946E-04  -0.3721135049E-04   0.0000000000E+00   0.0000000000E+00   0.3045143373E-01   0.2764387829E-02   0.0000000000E+00   0.2826650696E-02
   0.1944794406E-01   0.2499573260E+00   0.3498958293E-05  -0.4267398575E-04   0.0000000000E+00   0.0000000000E+00   0.1825981713E-01  -0.3228496915E-03   0.0000000000E+00   0.9250161054E-04
   0.3848642411E-01   0.2329042271E+00   0.8608407358E-05  -0.4005294358E-04   0.0000000000E+00   0.0000000000E+00   0.2336927357E-01   0.4119392998E-03   0.0000000000E+00   0.1323809446E-02
   0.3889609838E-01   0.2499589086E+00   0.7208076002E-05  -0.4109136650E-04   0.0000000000E+00   0.0000000000E+00   0.1984345817E-01  -0.2781059535E-03   0.0000000000E+00   0.5218526687E-03
   0.3292637960E+00   0.0000000000E+00   0.9711503874E-04   0.0000000000E+00   0.0000000000E+00   0.0000000000E+00   0.1510290186E-01   0.4367044303E-02   0.0000000000E+00  -0.4585638481E-04
   0.3500999940E+00   0.0000000000E+00   0.1000000000E-03   0.0000000000E+00   0.0000000000E+00   0.0000000000E+00   0.1519153081E-01   0.4394259243E-02   0.0000000000E+00  -0.2758615537E-06
   0.3500999940E+00   0.1923073063E-01   0.1000000000E-03  -0.3927361594E-07   0.0000000000E+00   0.0000000000E+00   0.1535726878E-01   0.4320328993E-02   0.0000000000E+00  -0.5594989223E-07
   0.3298599466E+00   0.1871450705E-01   0.9715960959E-04  -0.3825040932E-07   0.0000000000E+00   0.0000000000E+00   0.1527753253E-01   0.4297118700E-02   0.0000000000E+00  -0.1405635098E-03
   0.3500999940E+00   0.3846141397E-01   0.1000000000E-03  -0.1259314826E-06   0.0000000000E+00   0.0000000000E+00   0.1586031905E-01   0.4104698232E-02   0.0000000000E+00   0.1575613225E-05
   0.3303029378E+00   0.3768290948E-01   0.9710983635E-04  -0.1230206226E-06   0.0000000000E+00   0.0000000000E+00   0.1579465389E-01   0.4090290117E-02   0.0000000000E+00  -0.2924881546E-03
   0.3306554928E+00   0.5676242638E-01   0.9698375451E-04  -0.2987199771E-06   0.0000000000E+00   0.0000000000E+00   0.1662596992E-01   0.3759088937E-02   0.0000000000E+00  -0.3954741851E-03
   0.3309344622E+00   0.7595604564E-01   0.9679521264E-04  -0.6044565700E-06   0.0000000000E+00   0.0000000000E+00   0.1772443102E-01   0.3332092393E-02   0.0000000000E+00  -0.4703190948E-03
   0.3119051777E+00   0.7514488943E-01   0.9364067592E-04  -0.6233693490E-06   0.0000000000E+00   0.0000000000E+00   0.1756799013E-01   0.3216446954E-02   0.0000000000E+00  -0.9322018800E-03
   0.3112389195E+00   0.5605288966E-01   0.9400147928E-04  -0.3092443953E-06   0.0000000000E+00   0.0000000000E+00   0.1642870125E-01   0.3652553112E-02   0.0000000000E+00  -0.7891390296E-03
   0.3310789024E+00   0.9525492975E-01   0.9654537556E-04  -0.1071050767E-05   0.0000000000E+00   0.0000000000E+00   0.1903068944E-01   0.2839016242E-02   0.0000000000E+00  -0.5100550448E-03
   0.3122818110E+00   0.9439951913E-01   0.9315601985E-04  -0.1102871346E-05   0.0000000000E+00   0.0000000000E+00   0.1891690243E-01   0.2719995459E-02   0.0000000000E+00  -0.1003065893E-02
   0.3310650346E+00   0.1147078422E+00   0.9623759778E-04  -0.1721778702E-05   0.0000000000E+00   0.0000000000E+00   0.2048785532E-01   0.2317752850E-02   0.0000000000E+00  -0.5215246074E-03
   0.3309235681E+00   0.1342724671E+00   0.9588511024E-04  -0.2566868807E-05   0.0000000000E+00   0.0000000000E+00   0.2202996234E-01   0.1803137118E-02   0.0000000000E+00  -0.5015649241E-03
   0.3118896625E+00   0.1337910236E+00   0.9180551823E-04  -0.2658444113E-05   0.0000000000E+00   0.0000000000E+00   0.2202958440E-01   0.1676744750E-02   0.0000000000E+00  -0.9757692275E-03
   0.3122785452E+00   0.1139337483E+00   0.9254222017E-04  -0.1774655076E-05   0.0000000000E+00   0.0000000000E+00   0.2042433080E-01   0.2188956584E-02   0.0000000000E+00  -0.1015512527E-02
   0.2890871259E+00   0.1826412635E-01   0.9156189856E-04  -0.4625408251E-07   0.0000000000E+00   0.0000000000E+00   0.1459428744E-01   0.4032814787E-02   0.0000000000E+00  -0.4354605611E-03
   0.2875914746E+00   0.0000000000E+00   0.9148055335E-04   0.0000000000E+00   0.0000000000E+00   0.0000000000E+00   0.1436240250E-01   0.4099883063E-02   0.0000000000E+00  -0.1440457461E-03
   0.3084276005E+00   0.0000000000E+00   0.9426351416E-04   0.0000000000E+00   0.0000000000E+00   0.0000000000E+00   0.1483135326E-01   0.4270444129E-02   0.0000000000E+00  -0.9266826326E-04
   0.3094819555E+00   0.1840621272E-01   0.9433151943E-04  -0.4058067522E-07   0.0000000000E+00   0.0000000000E+00   0.1502202893E-01   0.4201653420E-02   0.0000000000E+00  -0.2819237112E-03
   0.2122730836E+00   0.1636827504E+00   0.6587058204E-04  -0.7861648467E-05   0.0000000000E+00   0.0000000000E+00   0.2621716253E-01  -0.9103207551E-03   0.0000000000E+00  -0.1761377944E-02
   0.2163773995E+00   0.1467630826E+00   0.6891048186E-04  -0.6172413349E-05   0.0000000000E+00   0.0000000000E+00   0.2452549926E-01  -0.9219231428E-03   0.0000000000E+00  -0.2410665107E-02
   0.2310274931E+00   0.1467303073E+00   0.7251813074E-04  -0.5390745667E-05   0.0000000000E+00   0.0000000000E+00   0.2426596424E-01  -0.3294973117E-03   0.0000000000E+00  -0.2261285789E-02
   0.2322202436E+00   0.1630985700E+00   0.7113459479E-04  -0.6605018358E-05   0.0000000000E+00   0.0000000000E+00   0.2564643425E-01  -0.3036379194E-03   0.0000000000E+00  -0.1800352873E-02
   0.2278494120E+00   0.1845699293E-01   0.8395598345E-04  -0.9936692280E-07   0.0000000000E+00   0.0000000000E+00   0.1199752156E-01   0.2899009289E-02   0.0000000000E+00  -0.1078974285E-02
   0.2307017071E+00   0.3704788895E-01   0.8342411208E-04  -0.2758542324E-06   0.0000000000E+00   0.0000000000E+00   0.1319673784E-01   0.2605163821E-02   0.0000000000E+00  -0.2178030096E-02
   0.1834135099E+00   0.0000000000E+00   0.8017289214E-04   0.0000000000E+00   0.0000000000E+00   0.0000000000E+00   0.7740173413E-02   0.1118628192E-02   0.0000000000E+00  -0.6528480885E-03
   0.2042485665E+00   0.0000000000E+00   0.8190049282E-04   0.0000000000E+00   0.0000000000E+00   0.0000000000E+00   0.9824089968E-02   0.2259401325E-02   0.0000000000E+00  -0.4902374759E-03
   0.1417447287E+00   0.0000000000E+00   0.7806273548E-04   0.0000000000E+00   0.0000000000E+00   0.0000000000E+00   0.1576097772E-02  -0.3998529374E-02   0.0000000000E+00  -0.1568197995E-02
   0.1457466892E+00   0.2098073405E-01   0.7700522855E-04  -0.8273498823E-06   0.0000000000E+00   0.0000000000E+00   0.3551448407E-02  -0.3285594145E-02   0.0000000000E+00  -0.2468575229E-02
   0.3500999940E+00   0.2499891313E+00   0.1000000000E-03  -0.1086868525E-04   0.0000000000E+00   0.0000000000E+00   0.2997103130E-01   0.9551967435E-04   0.0000000000E+00   0.8633634722E-04
   0.3306497309E+00   0.2499890547E+00   0.9417288591E-04  -0.1094527924E-04   0.0000000000E+00   0.0000000000E+00   0.3005495032E-01   0.9635711401E-04   0.0000000000E+00  -0.6285078100E-04
   0.3308829771E+00   0.2310374966E+00   0.9442411028E-04  -0.9269372719E-05   0.0000000000E+00   0.0000000000E+00   0.2908083334E-01   0.6304752171E-04   0.0000000000E+00  -0.1500040872E-03
   0.3500999940E+00   0.2307600570E+00   0.1000000000E-03  -0.9174980948E-05   0.0000000000E+00   0.0000000000E+00   0.2902148507E-01   0.7169460131E-04   0.0000000000E+00   0.8002931388E-04
   0.2730969941E+00   0.2316550138E+00   0.7741206039E-04  -0.1050816389E-04   0.0000000000E+00   0.0000000000E+00   0.2991484462E-01   0.9536240550E-06   0.0000000000E+00  -0.4044853655E-03
   0.2923456923E+00   0.2314797739E+00   0.8313833859E-04  -0.9914081685E-05   0.0000000000E+00   0.0000000000E+00   0.2955364458E-01   0.2926889788E-04   0.0000000000E+00  -0.3424669014E-03
   0.2917490505E+00   0.2499884031E+00   0.8239353590E-04  -0.1159691782E-04   0.0000000000E+00   0.0000000000E+00   0.3068530802E-01   0.1089099882E-03   0.0000000000E+00  -0.1031295856E-03
   0.2722986083E+00   0.2499877855E+00   0.7638726341E-04  -0.1221453869E-04   0.0000000000E+00   0.0000000000E+00   0.3118360877E-01   0.1202379709E-03   0.0000000000E+00  -0.1194735324E-03
   0.3500999940E+00   0.1730721923E+00   0.1000000000E-03  -0.4735727678E-05   0.0000000000E+00   0.0000000000E+00   0.2508626508E-01   0.9422216533E-03   0.0000000000E+00   0.6269346370E-04
   0.3308733503E+00   0.1733095110E+00   0.9522826733E-04  -0.4807041504E-05   0.0000000000E+00   0.0000000000E+00   0.2511591907E-01   0.9042848576E-03   0.0000000000E+00  -0.4082457129E-03
   0.3308652326E+00   0.1538437511E+00   0.9554456449E-04  -0.3600865664E-05   0.0000000000E+00   0.0000000000E+00   0.2358909766E-01   0.1328653272E-02   0.0000000000E+00  -0.4653634801E-03
   0.3500999940E+00   0.1538426072E+00   0.1000000000E-03  -0.3552845045E-05   0.0000000000E+00   0.0000000000E+00   0.2356730908E-01   0.1363688327E-02   0.0000000000E+00   0.5549430157E-04
   0.3500999940E+00   0.1346128462E+00   0.1000000000E-03  -0.2544832685E-05   0.0000000000E+00   0.0000000000E+00   0.2201734347E-01   0.1833966976E-02   0.0000000000E+00   0.4302226034E-04
   0.3500999940E+00   0.1153828966E+00   0.1000000000E-03  -0.1719395775E-05   0.0000000000E+00   0.0000000000E+00   0.2049026498E-01   0.2335407111E-02   0.0000000000E+00   0.3310999716E-04
   0.3500999940E+00   0.9615276997E-01   0.1000000000E-03  -0.1077928826E-05   0.0000000000E+00   0.0000000000E+00   0.1904719398E-01   0.2847245705E-02   0.0000000000E+00   0.2177951482E-04
   0.3500999940E+00   0.7692246749E-01   0.1000000000E-03  -0.6123112952E-06   0.0000000000E+00   0.0000000000E+00   0.1775473794E-01   0.3335796781E-02   0.0000000000E+00   0.1276999789E-04
   0.3500999940E+00   0.5769200355E-01   0.1000000000E-03  -0.3044504355E-06   0.0000000000E+00   0.0000000000E+00   0.1667390775E-01   0.3766567200E-02   0.0000000000E+00   0.5843268379E-05
   0.0000000000E+00   0.2499567808E+00   0.0000000000E+00  -0.4321922400E-04   0.0000000000E+00   0.0000000000E+00   0.1769523701E-01  -0.3373894304E-03   0.0000000000E+00   0.6324252106E-03
   0.3759647458E-01   0.2161796698E+00   0.9435383102E-05  -0.3901022444E-04   0.0000000000E+00   0.0000000000E+00   0.2595706283E-01   0.8973727370E-03   0.0000000000E+00   0.2286076652E-02
   0.3620316981E-01   0.2000666352E+00   0.9862313201E-05  -0.3806382529E-04   0.0000000000E+00   0.0000000000E+00   0.2820885288E-01   0.1756096342E-02   0.0000000000E+00   0.2659655749E-02
   0.5559832815E-01   0.1985737352E+00   0.1540615401E-04  -0.3528882907E-04   0.0000000000E+00   0.0000000000E+00   0.2900814827E-01   0.9875021474E-03   0.0000000000E+00   0.3526969874E-02
   0.5752149416E-01   0.2148891045E+00   0.1475406468E-04  -0.3624449171E-04   0.0000000000E+00   0.0000000000E+00   0.2710048836E-01   0.4362305534E-03   0.0000000000E+00   0.2950206362E-02
   0.1781248191E-01   0.2003756806E+00   0.4813806206E-05  -0.3969240577E-04   0.0000000000E+00   0.0000000000E+00   0.2787803564E-01   0.2347203328E-02   0.0000000000E+00   0.1236240470E-02
   0.5821152181E-01   0.2322806527E+00   0.1339390857E-04  -0.3743534535E-04   0.0000000000E+00   0.0000000000E+00   0.2483186609E-01   0.2516719870E-03   0.0000000000E+00   0.1692132973E-02
   0.1555941522E+00   0.2499775924E+00   0.3859122364E-04  -0.2240760423E-04   0.0000000000E+00   0.0000000000E+00   0.3238204678E-01   0.1000861976E-03   0.0000000000E+00   0.2067822795E-03
   0.1361435068E+00   0.2499745645E+00   0.3239678858E-04  -0.2543549050E-04   0.0000000000E+00   0.0000000000E+00   0.3127192027E-01   0.4736354199E-04   0.0000000000E+00   0.3424643918E-03
   0.1750449393E+00   0.2499802428E+00   0.4494232407E-04  -0.1975719873E-04   0.0000000000E+00   0.0000000000E+00   0.3292423925E-01   0.1300294665E-03   0.0000000000E+00   0.8837705637E-04
   0.1759715279E+00   0.2324781717E+00   0.4739093448E-04  -0.1794125539E-04   0.0000000000E+00   0.0000000000E+00   0.3129299686E-01  -0.2477177278E-03   0.0000000000E+00   0.1578232361E-03
   0.2250839521E+00   0.0000000000E+00   0.8395808191E-04   0.0000000000E+00   0.0000000000E+00   0.0000000000E+00   0.1145748025E-01   0.2965084045E-02   0.0000000000E+00  -0.3696525468E-03
   0.2459196173E+00   0.0000000000E+00   0.8628030067E-04   0.0000000000E+00   0.0000000000E+00   0.0000000000E+00   0.1272239298E-01   0.3479634149E-02   0.0000000000E+00  -0.2771607162E-03
   0.2483326837E+00   0.1834235522E-01   0.8634173279E-04  -0.7267901072E-07   0.0000000000E+00   0.0000000000E+00   0.1311954157E-01   0.3408990198E-02   0.0000000000E+00  -0.8211034077E-03
   0.1966059907E+00   0.1995021011E+00   0.5742472998E-04  -0.1248186585E-04   0.0000000000E+00   0.0000000000E+00   0.2904435267E-01  -0.7626689001E-03   0.0000000000E+00  -0.5330483970E-03
   0.2156221818E+00   0.1983815382E+00   0.6305677502E-04  -0.1071878350E-04   0.0000000000E+00   0.0000000000E+00   0.2858704507E-01  -0.4543341002E-03   0.0000000000E+00  -0.8848884034E-03
   0.2156034598E+00   0.2151258036E+00   0.6141176059E-04  -0.1224439457E-04   0.0000000000E+00   0.0000000000E+00   0.2976906811E-01  -0.2439001588E-03   0.0000000000E+00  -0.5924291728E-03
   0.1962782689E+00   0.2156072869E+00   0.5556089056E-04  -0.1403508641E-04   0.0000000000E+00   0.0000000000E+00   0.3008148362E-01  -0.4005451792E-03   0.0000000000E+00  -0.2685251239E-03
   0.1175473670E+00   0.2324099666E+00   0.2949303427E-04  -0.2703336411E-04   0.0000000000E+00   0.0000000000E+00   0.2931461525E-01  -0.2696496718E-03   0.0000000000E+00   0.1312646816E-02
   0.1189128139E+00   0.2152225204E+00   0.3218391309E-04  -0.2518562119E-04   0.0000000000E+00   0.0000000000E+00   0.2959510453E-01  -0.7249503677E-03   0.0000000000E+00   0.2201784760E-02
   0.2139466251E+00   0.2499843235E+00   0.5774107983E-04  -0.1567647582E-04   0.0000000000E+00   0.0000000000E+00   0.3275769917E-01   0.1486507012E-03   0.0000000000E+00  -0.6983908584E-04
   0.1944957991E+00   0.2499824847E+00   0.5135110218E-04  -0.1751527602E-04   0.0000000000E+00   0.0000000000E+00   0.3300925457E-01   0.1453536845E-03   0.0000000000E+00  -0.4023709811E-05
   0.1954886601E+00   0.2324033527E+00   0.5352310967E-04  -0.1570632122E-04   0.0000000000E+00   0.0000000000E+00   0.3129934990E-01  -0.1974400756E-03   0.0000000000E+00  -0.1092246436E-03
   0.2149717703E+00   0.2322698375E+00   0.5962434494E-04  -0.1388846513E-04   0.0000000000E+00   0.0000000000E+00   0.3108009314E-01  -0.1406680127E-03   0.0000000000E+00  -0.2933359654E-03
   0.2343998475E+00   0.2319411397E+00   0.6566150025E-04  -0.1243630294E-04   0.0000000000E+00   0.0000000000E+00   0.3072978061E-01  -0.8785473948E-04   0.0000000000E+00  -0.3967357145E-03
   0.2537685920E+00   0.2318127661E+00   0.7158397292E-04  -0.1133393363E-04   0.0000000000E+00   0.0000000000E+00   0.3031864717E-01  -0.3998569789E-04   0.0000000000E+00  -0.4292765981E-03
   0.2528480628E+00   0.2499869288E+00   0.7027778630E-04  -0.1307121758E-04   0.0000000000E+00   0.0000000000E+00   0.3174345917E-01   0.1328509494E-03   0.0000000000E+00  -0.1227668240E-03
   0.2333973932E+00   0.2499857896E+00   0.6405923486E-04  -0.1421043871E-04   0.0000000000E+00   0.0000000000E+00   0.3229744729E-01   0.1431393710E-03   0.0000000000E+00  -0.1080262810E-03
   0.3111994358E+00   0.2499888173E+00   0.8831377352E-04  -0.1118267779E-04   0.0000000000E+00   0.0000000000E+00   0.3029922409E-01   0.1002634509E-03   0.0000000000E+00  -0.6794190326E-04
   0.3115913149E+00   0.2312627117E+00   0.8879889990E-04  -0.9509266283E-05   0.0000000000E+00   0.0000000000E+00   0.2926966945E-01   0.5211617868E-04   0.0000000000E+00  -0.2388456383E-03
   0.5560046572E-01   0.8312111598E-01   0.4344202196E-04  -0.2584352481E-04   0.0000000000E+00   0.0000000000E+00   0.3581497521E-01   0.1219091115E-01   0.0000000000E+00  -0.1814119190E-01
   0.7197108962E-01   0.9411963740E-01   0.4116541761E-04  -0.2148080201E-04   0.0000000000E+00   0.0000000000E+00   0.2874247617E-01  -0.6338050592E-03   0.0000000000E+00  -0.7568589295E-02
   0.6202042983E-01   0.1069628273E+00   0.3232192675E-04  -0.2558068784E-04   0.0000000000E+00   0.0000000000E+00   0.3492048393E-01   0.3842335451E-03   0.0000000000E+00  -0.4567222972E-02
   0.3829785037E-01   0.9235783538E-01   0.2950777079E-04  -0.3011651786E-04   0.0000000000E+00   0.0000000000E+00   0.5234903504E-01   0.8994188796E-02   0.0000000000E+00  -0.1363350750E-01
   0.0000000000E+00   0.1999598045E+00   0.0000000000E+00  -0.4019847649E-04   0.0000000000E+00   0.0000000000E+00   0.2773178793E-01   0.2551939825E-02   0.0000000000E+00   0.6653051470E-03
   0.0000000000E+00   0.1832940536E+00   0.0000000000E+00  -0.3928337785E-04   0.0000000000E+00   0.0000000000E+00   0.3029578544E-01   0.3988844821E-02   0.0000000000E+00   0.7024958859E-03
   0.3652453246E-01   0.1168350924E+00   0.1789455522E-04  -0.3232355351E-04   0.0000000000E+00   0.0000000000E+00   0.4723580323E-01   0.6237927778E-02   0.0000000000E+00  -0.4976224904E-02
   0.2667554860E+00   0.0000000000E+00   0.8880500343E-04   0.0000000000E+00   0.0000000000E+00   0.0000000000E+00   0.1367086295E-01   0.3842485856E-02   0.0000000000E+00  -0.2053629691E-03
   0.2687148324E+00   0.1829145418E-01   0.8888740044E-04  -0.5641924454E-07   0.0000000000E+00   0.0000000000E+00   0.1397015578E-01   0.3775862585E-02   0.0000000000E+00  -0.6115420907E-03
   0.2366057245E+00   0.7431509867E-01   0.8132145904E-04  -0.1097434428E-05   0.0000000000E+00   0.0000000000E+00   0.1674746079E-01   0.1626657382E-02   0.0000000000E+00  -0.3101558843E-02
   0.2553009684E+00   0.7383700472E-01   0.8439942041E-04  -0.8864840720E-06   0.0000000000E+00   0.0000000000E+00   0.1693287258E-01   0.2251219740E-02   0.0000000000E+00  -0.2479820914E-02
   0.3104296965E+00   0.3712683377E-01   0.9423954925E-04  -0.1283310338E-06   0.0000000000E+00   0.0000000000E+00   0.1556407238E-01   0.3991139912E-02   0.0000000000E+00  -0.5857478628E-03
   0.2905315276E+00   0.3677709698E-01   0.9141560164E-04  -0.1423234057E-06   0.0000000000E+00   0.0000000000E+00   0.1520685123E-01   0.3815150015E-02   0.0000000000E+00  -0.9014319384E-03
   0.3500999940E+00   0.2115308962E+00   0.1000000000E-03  -0.7567848025E-05   0.0000000000E+00   0.0000000000E+00   0.2786887455E-01   0.2945634832E-03   0.0000000000E+00   0.7482784627E-04
   0.3310031089E+00   0.2119731946E+00   0.9469092110E-04  -0.7669373064E-05   0.0000000000E+00   0.0000000000E+00   0.2791682543E-01   0.2746463673E-03   0.0000000000E+00  -0.2644404635E-03
   0.3309379759E+00   0.1926954673E+00   0.9494488858E-04  -0.6170726622E-05   0.0000000000E+00   0.0000000000E+00   0.2657120009E-01   0.5459588363E-03   0.0000000000E+00  -0.3417315813E-03
   0.3500999940E+00   0.1923016159E+00   0.1000000000E-03  -0.6080064966E-05   0.0000000000E+00   0.0000000000E+00   0.2653431100E-01   0.5781709853E-03   0.0000000000E+00   0.7018580907E-04
   0.2926466807E+00   0.2126757549E+00   0.8392773261E-04  -0.8295115917E-05   0.0000000000E+00   0.0000000000E+00   0.2831364726E-01   0.1927712302E-03   0.0000000000E+00  -0.6515277217E-03
   0.2735824196E+00   0.2131344873E+00   0.7849061712E-04  -0.8876686335E-05   0.0000000000E+00   0.0000000000E+00   0.2862935739E-01   0.1145101458E-03   0.0000000000E+00  -0.7793789809E-03
   0.2734350327E+00   0.1942651718E+00   0.7951868220E-04  -0.7331209604E-05   0.0000000000E+00   0.0000000000E+00   0.2723328417E-01   0.2413119167E-03   0.0000000000E+00  -0.1044123656E-02
   0.2925036323E+00   0.1934400289E+00   0.8470531593E-04  -0.6756086725E-05   0.0000000000E+00   0.0000000000E+00   0.2693898990E-01   0.3646473795E-03   0.0000000000E+00  -0.8768751182E-03
   0.1944833749E+00   0.5816896004E-01   0.7676090656E-04  -0.1157358415E-05   0.0000000000E+00   0.0000000000E+00   0.1390839461E-01   0.2917871975E-03   0.0000000000E+00  -0.4374896211E-02
   0.2141735541E+00   0.5661277960E-01   0.7967510152E-04  -0.8035031991E-06   0.0000000000E+00   0.0000000000E+00   0.1433059337E-01   0.1317891555E-02   0.0000000000E+00  -0.3522436364E-02
   0.7320826794E-01   0.1305667891E+00   0.2929863793E-04  -0.2527386271E-04   0.0000000000E+00   0.0000000000E+00   0.3555951442E-01  -0.1309143898E-02   0.0000000000E+00   0.7761444414E-03
   0.5551222900E-01   0.1224467551E+00   0.2460739718E-04  -0.2870491898E-04   0.0000000000E+00   0.0000000000E+00   0.4114051286E-01   0.2733220357E-02   0.0000000000E+00  -0.1263686979E-02
   0.8081266059E-01   0.1172544000E+00   0.3544018882E-04  -0.2168703484E-04   0.0000000000E+00   0.0000000000E+00   0.3408811370E-01  -0.2366131388E-02   0.0000000000E+00  -0.1424745760E-02
   0.5834463208E-01   0.2499613537E+00   0.1129848072E-04  -0.3864632041E-04   0.0000000000E+00   0.0000000000E+00   0.2214768338E-01  -0.2187457806E-03   0.0000000000E+00   0.5916477020E-03
   0.7820924867E-01   0.2133880186E+00   0.2059087172E-04  -0.3261142629E-04   0.0000000000E+00   0.0000000000E+00   0.2799501853E-01  -0.7466246893E-04   0.0000000000E+00   0.3198897811E-02
   0.7801889900E-01   0.1934034700E+00   0.2239920479E-04  -0.3090295616E-04   0.0000000000E+00   0.0000000000E+00   0.2995772494E-01  -0.1982156855E-03   0.0000000000E+00   0.3770528624E-02
   0.1768060802E+00   0.2157833637E+00   0.4963819535E-04  -0.1623629999E-04   0.0000000000E+00   0.0000000000E+00   0.3025208239E-01  -0.5466963951E-03   0.0000000000E+00   0.2003961927E-03
   0.3116002939E+00   0.1537259670E+00   0.9107189544E-04  -0.3740042275E-05   0.0000000000E+00   0.0000000000E+00   0.2366229311E-01   0.1210156942E-02   0.0000000000E+00  -0.8765127423E-03