 VARIABLES = X,Y,Z,S11,S22,S33,S12,S13,S23
 ZONE, T="0.1000D+01" F=FEPOINT, I=   12 J=    2 ET=BRICK
   0.0000000000E+00   0.0000000000E+00   0.0000000000E+00   0.4511774169E+01   0.4749166432E-12   0.4759540508E-12   0.1563230112E-17   0.8588704079E-15   0.1520305898E-14
   0.1150000000E+01   0.0000000000E+00   0.4879845173E-16   0.4511774169E+01   0.4791680183E-12   0.4770932031E-12   0.5459998457E-15   0.7471198911E-15   0.6913735124E-15
   0.1150000000E+01   0.9332047027E+00   0.1247996238E-15   0.4511774168E+01   0.4808358536E-12   0.4775400981E-12   0.4079354414E-16  -0.3816243816E-15  -0.4012110590E-16
   0.0000000000E+00   0.9332047027E+00   0.1642057887E-15   0.4511774168E+01   0.4819750059E-12   0.4778453331E-12  -0.1261452513E-14  -0.4377969149E-15  -0.1301231233E-15
   0.0000000000E+00   0.0000000000E+00   0.9332047027E+00   0.4511774168E+01   0.4781233055E-12   0.4830124135E-12   0.1058722349E-15  -0.4599132188E-15  -0.9349630717E-16
   0.1150000000E+01   0.0000000000E+00   0.9332047027E+00   0.4511774168E+01   0.4769841532E-12   0.4787610384E-12  -0.4489261247E-15   0.1817022962E-15   0.1124080652E-15
   0.1150000000E+01   0.9332047027E+00   0.9332047027E+00   0.4511774168E+01   0.4765372580E-12   0.4770932030E-12  -0.4010923962E-15  -0.2520051820E-15  -0.6190865530E-15
   0.0000000000E+00   0.9332047027E+00   0.9332047027E+00   0.4511774168E+01   0.4762320231E-12   0.4759540506E-12   0.2254565549E-15  -0.4673993990E-15  -0.1743925328E-14
   0.2300000000E+01   0.0000000000E+00   0.2782727031E-16   0.4511774169E+01   0.4762320233E-12   0.4763065057E-12  -0.2242808334E-15  -0.4893022034E-15   0.7569395775E-15
   0.2300000000E+01   0.9332047027E+00   0.1075226609E-15   0.4511774168E+01   0.4816225509E-12   0.4777508930E-12   0.2832230662E-16  -0.2371984981E-15   0.4681491585E-16
   0.2300000000E+01   0.0000000000E+00   0.9332047027E+00   0.4511774168E+01   0.4777708505E-12   0.4816970333E-12   0.5889107950E-16  -0.3013537663E-15   0.2303416970E-15
   0.2300000000E+01   0.9332047027E+00   0.9332047027E+00   0.4511774168E+01   0.4763264631E-12   0.4763065056E-12   0.3497421631E-16   0.5164238528E-16  -0.4797829645E-15
     1     2     3     4     5     6     7     8
     2     9    10     3     6    11    12     7
 VARIABLES = X,Y,Z,S11,S22,S33,S12,S13,S23
 ZONE, T="0.2000D+01" F=FEPOINT, I=   12 J=    2 ET=BRICK
   0.0000000000E+00   0.0000000000E+00   0.0000000000E+00   0.9165659390E+01   0.4232766926E-10   0.4232766926E-10   0.7283926962E-16   0.1632082553E-14   0.1386672048E-15
   0.1300000000E+01   0.0000000000E+00   0.8357897140E-16   0.9165659390E+01   0.4232766926E-10   0.4232766926E-10   0.3404433693E-15  -0.7818154267E-15  -0.7542727513E-15
   0.1300000000E+01   0.8783927377E+00  -0.1348693480E-17   0.9165659389E+01   0.4232766925E-10   0.4232766925E-10  -0.3796651302E-16   0.1615002014E-14  -0.5739013786E-15
   0.0000000000E+00   0.8783927377E+00   0.1094473520E-16   0.9165659389E+01   0.4232766925E-10   0.4232766925E-10  -0.1492103508E-14  -0.5645786429E-15   0.2190391168E-15
   0.0000000000E+00   0.0000000000E+00   0.8783927377E+00   0.9165659389E+01   0.4232766925E-10   0.4232766925E-10   0.1264633359E-15  -0.7393803758E-15   0.4894810311E-16
   0.1300000000E+01   0.0000000000E+00   0.8783927377E+00   0.9165659389E+01   0.4232766925E-10   0.4232766925E-10   0.1773587098E-14  -0.1453095451E-14   0.2004351207E-15
   0.1300000000E+01   0.8783927377E+00   0.8783927377E+00   0.9165659387E+01   0.4232766925E-10   0.4232766925E-10   0.1479573681E-14   0.1399462906E-14   0.3808064933E-15
   0.0000000000E+00   0.8783927377E+00   0.8783927377E+00   0.9165659388E+01   0.4232766925E-10   0.4232766925E-10  -0.1480677673E-14  -0.1762771669E-15   0.1293200151E-15
   0.2600000000E+01   0.0000000000E+00   0.4050993133E-16   0.9165659389E+01   0.4232766925E-10   0.4232766925E-10  -0.3707838751E-15  -0.1417022337E-14  -0.4869833974E-16
   0.2600000000E+01   0.8783927377E+00   0.3770852542E-16   0.9165659388E+01   0.4232766925E-10   0.4232766925E-10   0.4373391379E-15   0.6462643741E-15  -0.4205024918E-16
   0.2600000000E+01   0.0000000000E+00   0.8783927377E+00   0.9165659388E+01   0.4232766925E-10   0.4232766925E-10   0.3433384891E-15  -0.3881194575E-15   0.3309102788E-15
   0.2600000000E+01   0.8783927377E+00   0.8783927377E+00   0.9165659387E+01   0.4232766924E-10   0.4232766924E-10   0.1362452665E-14  -0.1731153187E-15   0.3375583693E-15
     1     2     3     4     5     6     7     8
     2     9    10     3     6    11    12     7
 VARIABLES = X,Y,Z,S11,S22,S33,S12,S13,S23
 ZONE, T="0.3000D+01" F=FEPOINT, I=   12 J=    2 ET=BRICK
   0.0000000000E+00   0.0000000000E+00   0.0000000000E+00   0.1405264706E+02   0.5344773066E-11   0.5344773066E-11  -0.7136341200E-16   0.4951024199E-15  -0.7875882868E-15
   0.1450000000E+01   0.0000000000E+00   0.3949189855E-16   0.1405264706E+02   0.5346511802E-11   0.5346511802E-11  -0.1396832729E-14  -0.6697858418E-15   0.1994965539E-15
   0.1450000000E+01   0.8323885354E+00   0.5549046649E-16   0.1405264706E+02   0.5349678677E-11   0.5349678677E-11  -0.1510167191E-14   0.1430927429E-15  -0.6421592009E-15
   0.0000000000E+00   0.8323885354E+00  -0.8318546770E-16   0.1405264706E+02   0.5352690255E-11   0.5352690255E-11   0.2124590468E-14   0.2702152748E-14   0.3165764956E-15
   0.0000000000E+00   0.0000000000E+00   0.8323885354E+00   0.1405264706E+02   0.5352690255E-11   0.5352690255E-11   0.8641246170E-16  -0.1568993094E-14  -0.9155543631E-15
   0.1450000000E+01   0.0000000000E+00   0.8323885354E+00   0.1405264706E+02   0.5349678677E-11   0.5349678677E-11  -0.1098274374E-14  -0.8826873006E-15   0.1172863443E-15
   0.1450000000E+01   0.8323885354E+00   0.8323885354E+00   0.1405264706E+02   0.5348830114E-11   0.5348830114E-11  -0.1343255758E-14  -0.2954891535E-15  -0.7243694105E-15
   0.0000000000E+00   0.8323885354E+00   0.8323885354E+00   0.1405264706E+02   0.5350568850E-11   0.5350568850E-11  -0.2842460188E-14   0.6944773391E-15   0.1886104192E-15
   0.2900000000E+01   0.0000000000E+00   0.8462307293E-16   0.1405264706E+02   0.5348250537E-11   0.5348250537E-11  -0.1146243933E-15  -0.1659700695E-15  -0.3619575545E-15
   0.2900000000E+01   0.8323885354E+00   0.2823703608E-16   0.1405264706E+02   0.5346667098E-11   0.5346667098E-11  -0.2537247197E-14  -0.1092741497E-14   0.3917184111E-15
   0.2900000000E+01   0.0000000000E+00   0.8323885354E+00   0.1405264706E+02   0.5346667098E-11   0.5346667098E-11  -0.4526096628E-15   0.1472322526E-14  -0.1154145611E-14
   0.2900000000E+01   0.8323885354E+00   0.8323885354E+00   0.1405264706E+02   0.5347091378E-11   0.5347091378E-11   0.1986300219E-14   0.3777011850E-16  -0.4004696451E-15
     1     2     3     4     5     6     7     8
     2     9    10     3     6    11    12     7
 VARIABLES = X,Y,Z,S11,S22,S33,S12,S13,S23
 ZONE, T="0.4000D+01" F=FEPOINT, I=   12 J=    2 ET=BRICK
   0.0000000000E+00   0.0000000000E+00   0.0000000000E+00   0.1922866925E+02   0.3411443315E-04   0.3411443315E-04   0.1627184173E-15  -0.8899188629E-14  -0.2885770915E-14
   0.1600000000E+01   0.0000000000E+00  -0.4336228817E-15   0.1922866925E+02   0.3411443298E-04   0.3411443298E-04   0.2587195158E-14  -0.3064445598E-14   0.2425085958E-14
   0.1600000000E+01   0.7930829933E+00  -0.1153152512E-15   0.1922866925E+02   0.3411443298E-04   0.3411443298E-04   0.3413997949E-14  -0.1198053970E-14   0.1527119885E-14
   0.0000000000E+00   0.7930829933E+00  -0.3769089013E-15   0.1922866925E+02   0.3411443315E-04   0.3411443314E-04  -0.5655736183E-15   0.5921249093E-14  -0.2819852067E-14
   0.0000000000E+00   0.0000000000E+00   0.7930829933E+00   0.1922866925E+02   0.3411443315E-04   0.3411443314E-04  -0.1615957730E-15   0.1265592399E-15   0.1539590492E-15
   0.1600000000E+01   0.0000000000E+00   0.7930829933E+00   0.1922866925E+02   0.3411443298E-04   0.3411443298E-04  -0.1855316827E-15  -0.3762891340E-15   0.6092055700E-15
   0.1600000000E+01   0.7930829933E+00   0.7930829933E+00   0.1922866924E+02   0.3411443298E-04   0.3411443298E-04  -0.8926569295E-15  -0.2282531332E-14  -0.2887605026E-15
   0.0000000000E+00   0.7930829933E+00   0.7930829933E+00   0.1922866925E+02   0.3411443314E-04   0.3411443314E-04  -0.3729727537E-14   0.4302063395E-16   0.2198778962E-15
   0.3200000000E+01   0.0000000000E+00  -0.3557302899E-15   0.1922866925E+02   0.3411443281E-04   0.3411443281E-04  -0.7995417503E-15   0.3483067192E-14   0.2438655033E-15
   0.3200000000E+01   0.7930829933E+00  -0.3508169994E-15   0.1922866925E+02   0.3411443282E-04   0.3411443282E-04   0.1582355869E-14  -0.5138643544E-14  -0.7549051832E-15
   0.3200000000E+01   0.0000000000E+00   0.7930829933E+00   0.1922866925E+02   0.3411443281E-04   0.3411443281E-04   0.1441780863E-15  -0.1663677493E-15   0.7647106458E-15
   0.3200000000E+01   0.7930829933E+00   0.7930829933E+00   0.1922866924E+02   0.3411443281E-04   0.3411443280E-04   0.2298059356E-14  -0.1429369808E-14  -0.2340600407E-15
     1     2     3     4     5     6     7     8
     2     9    10     3     6    11    12     7
 VARIABLES = X,Y,Z,S11,S22,S33,S12,S13,S23
 ZONE, T="0.5000D+01" F=FEPOINT, I=   12 J=    2 ET=BRICK
   0.0000000000E+00   0.0000000000E+00   0.0000000000E+00   0.2472939426E+02   0.1494149117E-04   0.1494149117E-04   0.1971411928E-15  -0.7871847101E-14  -0.1310191218E-14
   0.1750000000E+01   0.0000000000E+00  -0.3400006204E-15   0.2472939426E+02   0.1494149101E-04   0.1494149101E-04   0.3086271823E-14  -0.4292143353E-15   0.1863849065E-14
   0.1750000000E+01   0.7590130018E+00  -0.8739205963E-16   0.2472939425E+02   0.1494149100E-04   0.1494149100E-04   0.3109352395E-14  -0.4219859208E-14   0.6474586323E-15
   0.0000000000E+00   0.7590130018E+00  -0.1956253951E-15   0.2472939425E+02   0.1494149116E-04   0.1494149116E-04   0.3354707171E-14   0.2804934608E-14  -0.7317881555E-15
   0.0000000000E+00   0.0000000000E+00   0.7590130018E+00   0.2472939425E+02   0.1494149117E-04   0.1494149117E-04  -0.4787097934E-15  -0.2697528620E-14  -0.7477166842E-15
   0.1750000000E+01   0.0000000000E+00   0.7590130018E+00   0.2472939425E+02   0.1494149100E-04   0.1494149101E-04  -0.1433019312E-14  -0.1102931491E-14   0.2058131434E-15
   0.1750000000E+01   0.7590130018E+00   0.7590130018E+00   0.2472939425E+02   0.1494149100E-04   0.1494149100E-04  -0.2632767403E-14  -0.2447919035E-14  -0.1010577289E-14
   0.0000000000E+00   0.7590130018E+00   0.7590130018E+00   0.2472939425E+02   0.1494149117E-04   0.1494149117E-04  -0.3910831539E-14  -0.1729378540E-15  -0.1693136217E-15
   0.3500000000E+01   0.0000000000E+00  -0.1220807508E-15   0.2472939426E+02   0.1494149084E-04   0.1494149083E-04  -0.1153096024E-15   0.5764511024E-14  -0.9377839178E-15
   0.3500000000E+01   0.7590130018E+00  -0.2627291068E-15   0.2472939425E+02   0.1494149084E-04   0.1494149084E-04  -0.3226714435E-14  -0.4007682898E-14  -0.1238201412E-14
   0.3500000000E+01   0.0000000000E+00   0.7590130018E+00   0.2472939425E+02   0.1494149083E-04   0.1494149083E-04   0.1649825254E-15  -0.7572417666E-15   0.1430218443E-14
   0.3500000000E+01   0.7590130018E+00   0.7590130018E+00   0.2472939425E+02   0.1494149083E-04   0.1494149084E-04   0.1197608088E-14   0.2514069908E-14   0.1129800949E-14
     1     2     3     4     5     6     7     8
     2     9    10     3     6    11    12     7
 VARIABLES = X,Y,Z,S11,S22,S33,S12,S13,S23
 ZONE, T="0.6000D+01" F=FEPOINT, I=   12 J=    2 ET=BRICK
   0.0000000000E+00   0.0000000000E+00   0.0000000000E+00   0.3057837307E+02   0.7057632111E-05   0.7057632106E-05   0.1117424830E-14   0.4159340780E-14   0.2137353074E-14
   0.1900000000E+01   0.0000000000E+00   0.1399152517E-15   0.3057837307E+02   0.7057631761E-05   0.7057631759E-05   0.1301369706E-15   0.2996806491E-14  -0.7672110653E-15
   0.1900000000E+01   0.7291274411E+00   0.3219925627E-16   0.3057837306E+02   0.7057631755E-05   0.7057631756E-05  -0.6161277925E-14  -0.1195303012E-15  -0.1584331587E-14
   0.0000000000E+00   0.7291274411E+00   0.2939675593E-15   0.3057837307E+02   0.7057632111E-05   0.7057632102E-05  -0.6360668006E-14  -0.6152782566E-14  -0.2832017607E-14
   0.0000000000E+00   0.0000000000E+00   0.7291274411E+00   0.3057837307E+02   0.7057632089E-05   0.7057632088E-05  -0.7979803352E-15   0.6376778729E-14   0.3901067439E-14
   0.1900000000E+01   0.0000000000E+00   0.7291274411E+00   0.3057837306E+02   0.7057631756E-05   0.7057631758E-05   0.2760359389E-14   0.2595984931E-14  -0.7648674485E-15
   0.1900000000E+01   0.7291274411E+00   0.7291274411E+00   0.3057837306E+02   0.7057631765E-05   0.7057631764E-05   0.7322207645E-14  -0.3319609777E-14  -0.1581987970E-14
   0.0000000000E+00   0.7291274411E+00   0.7291274411E+00   0.3057837306E+02   0.7057632088E-05   0.7057632097E-05   0.2356195940E-14  -0.7250255299E-14  -0.1068303242E-14
   0.3800000000E+01   0.0000000000E+00   0.8287674602E-16   0.3057837307E+02   0.7057631412E-05   0.7057631415E-05   0.1411224772E-14  -0.1523793240E-15  -0.6443843641E-15
   0.3800000000E+01   0.7291274411E+00  -0.1216335435E-16   0.3057837306E+02   0.7057631413E-05   0.7057631415E-05  -0.3693512185E-14  -0.1500561506E-14   0.2803820938E-14
   0.3800000000E+01   0.0000000000E+00   0.7291274411E+00   0.3057837306E+02   0.7057631427E-05   0.7057631417E-05  -0.9112811277E-15  -0.3171460392E-14  -0.1498806172E-14
   0.3800000000E+01   0.7291274411E+00   0.7291274411E+00   0.3057837306E+02   0.7057631421E-05   0.7057631413E-05   0.5058239111E-14  -0.6803247723E-14   0.1949399130E-14
     1     2     3     4     5     6     7     8
     2     9    10     3     6    11    12     7
 VARIABLES = X,Y,Z,S11,S22,S33,S12,S13,S23
 ZONE, T="0.7000D+01" F=FEPOINT, I=   12 J=    2 ET=BRICK
   0.0000000000E+00   0.0000000000E+00   0.0000000000E+00   0.3679124684E+02   0.3547822298E-05   0.3547822274E-05  -0.1498944480E-15   0.1452997072E-13   0.4519969812E-14
   0.2050000000E+01   0.0000000000E+00   0.4633396693E-15   0.3679124684E+02   0.3547822394E-05   0.3547822415E-05   0.2825824585E-14   0.5365125896E-14  -0.5340092230E-14
   0.2050000000E+01   0.7026489708E+00  -0.2757459961E-15   0.3679124684E+02   0.3547822393E-05   0.3547822407E-05  -0.3363385749E-14  -0.4119091662E-14   0.1361098780E-13
   0.0000000000E+00   0.7026489708E+00   0.6319633803E-15   0.3679124684E+02   0.3547822271E-05   0.3547822247E-05  -0.8996083920E-13  -0.2355127810E-13  -0.1875561652E-13
   0.0000000000E+00   0.0000000000E+00   0.7026489708E+00   0.3679124684E+02   0.3547822200E-05   0.3547822222E-05   0.4813641034E-15   0.1898359316E-13   0.6027373403E-14
   0.2050000000E+01   0.0000000000E+00   0.7026489708E+00   0.3679124684E+02   0.3547822453E-05   0.3547822434E-05  -0.1233543958E-14   0.7207184017E-14  -0.5354268908E-14
   0.2050000000E+01   0.7026489708E+00   0.7026489708E+00   0.3679124683E+02   0.3547822451E-05   0.3547822432E-05   0.7552514290E-14  -0.2753278831E-14   0.1359681112E-13
   0.0000000000E+00   0.7026489708E+00   0.7026489708E+00   0.3679124684E+02   0.3547822208E-05   0.3547822230E-05   0.8606097441E-13  -0.2520947014E-13  -0.1724821292E-13
   0.4100000000E+01   0.0000000000E+00  -0.1794728505E-15   0.3679124684E+02   0.3547822627E-05   0.3547822610E-05  -0.5110058869E-16  -0.1625616987E-13   0.1332575909E-14
   0.4100000000E+01   0.7026489708E+00   0.8424482648E-17   0.3679124684E+02   0.3547822623E-05   0.3547822617E-05   0.7738142349E-13   0.1185274674E-13  -0.1119968217E-13
   0.4100000000E+01   0.0000000000E+00   0.7026489708E+00   0.3679124684E+02   0.3547822567E-05   0.3547822572E-05  -0.5304854879E-15  -0.1702567607E-13   0.2408590773E-14
   0.4100000000E+01   0.7026489708E+00   0.7026489708E+00   0.3679124683E+02   0.3547822582E-05   0.3547822595E-05  -0.6853797929E-13   0.1624256444E-13  -0.1012366730E-13
     1     2     3     4     5     6     7     8
     2     9    10     3     6    11    12     7
 VARIABLES = X,Y,Z,S11,S22,S33,S12,S13,S23
 ZONE, T="0.8000D+01" F=FEPOINT, I=   12 J=    2 ET=BRICK
   0.0000000000E+00   0.0000000000E+00   0.0000000000E+00   0.4337844401E+02   0.1879099849E-05   0.1879099874E-05  -0.2762193410E-15  -0.6816727713E-13  -0.1586053510E-13
   0.2200000000E+01   0.0000000000E+00  -0.2199649102E-14   0.4337844401E+02   0.1879100126E-05   0.1879100094E-05   0.2146458107E-15  -0.6948460110E-14   0.8926092709E-14
   0.2200000000E+01   0.6789886336E+00  -0.9070739977E-15   0.4337844401E+02   0.1879100127E-05   0.1879100095E-05  -0.4954340461E-14  -0.3918561698E-15  -0.2491682007E-13
   0.0000000000E+00   0.6789886336E+00  -0.2326415367E-14   0.4337844401E+02   0.1879099843E-05   0.1879099874E-05   0.1676314687E-12   0.4766778728E-13   0.1910002957E-13
   0.0000000000E+00   0.0000000000E+00   0.6789886336E+00   0.4337844401E+02   0.1879099944E-05   0.1879099898E-05   0.8322062470E-15  -0.4872767336E-13  -0.9731444707E-14
   0.2200000000E+01   0.0000000000E+00   0.6789886336E+00   0.4337844401E+02   0.1879100026E-05   0.1879100062E-05  -0.2411609459E-14   0.1306274395E-14   0.8081557887E-14
   0.2200000000E+01   0.6789886336E+00   0.6789886336E+00   0.4337844400E+02   0.1879100020E-05   0.1879100052E-05   0.3018406164E-15  -0.1607386910E-14  -0.2576135489E-13
   0.0000000000E+00   0.6789886336E+00   0.6789886336E+00   0.4337844400E+02   0.1879099967E-05   0.1879099935E-05  -0.1708570075E-12   0.3747736982E-13   0.2522911997E-13
   0.4400000000E+01   0.0000000000E+00  -0.7600009246E-15   0.4337844401E+02   0.1879100176E-05   0.1879100216E-05  -0.5018222281E-15   0.5205446595E-13  -0.1201709631E-13
   0.4400000000E+01   0.6789886336E+00  -0.2514136391E-14   0.4337844401E+02   0.1879100181E-05   0.1879100224E-05  -0.1787474828E-12  -0.5318766589E-13   0.2832713427E-13
   0.4400000000E+01   0.0000000000E+00   0.6789886336E+00   0.4337844401E+02   0.1879100332E-05   0.1879100302E-05  -0.2008863249E-17   0.4912433119E-13  -0.1136433095E-13
   0.4400000000E+01   0.6789886336E+00   0.6789886336E+00   0.4337844400E+02   0.1879100311E-05   0.1879100272E-05   0.1771141050E-12  -0.4542830991E-13   0.2897989962E-13
     1     2     3     4     5     6     7     8
     2     9    10     3     6    11    12     7
 VARIABLES = X,Y,Z,S11,S22,S33,S12,S13,S23
 ZONE, T="0.9000D+01" F=FEPOINT, I=   12 J=    2 ET=BRICK
   0.0000000000E+00   0.0000000000E+00   0.0000000000E+00   0.5034680134E+02   0.1040463739E-05   0.1040463697E-05  -0.7823949391E-15   0.3456545509E-13   0.6364287529E-14
   0.2350000000E+01   0.0000000000E+00   0.9390242200E-15   0.5034680134E+02   0.1040463955E-05   0.1040464004E-05  -0.2693119579E-14  -0.7532694133E-14  -0.1030505101E-13
   0.2350000000E+01   0.6576908986E+00  -0.6553842598E-15   0.5034680133E+02   0.1040463971E-05   0.1040464013E-05   0.1419620399E-14  -0.3324914911E-14   0.2926785123E-13
   0.0000000000E+00   0.6576908986E+00   0.9579547459E-15   0.5034680133E+02   0.1040463764E-05   0.1040463733E-05  -0.2012829189E-12  -0.5577042677E-13  -0.2545259440E-13
   0.0000000000E+00   0.0000000000E+00   0.6576908986E+00   0.5034680133E+02   0.1040463646E-05   0.1040463669E-05   0.6121758940E-15   0.5182552366E-13   0.7067555373E-14
   0.2350000000E+01   0.0000000000E+00   0.6576908986E+00   0.5034680133E+02   0.1040464119E-05   0.1040464081E-05  -0.2353911180E-14  -0.4643355541E-14  -0.1042904042E-13
   0.2350000000E+01   0.6576908986E+00   0.6576908986E+00   0.5034680132E+02   0.1040464122E-05   0.1040464089E-05  -0.3987254284E-14  -0.3036434974E-14   0.2914386181E-13
   0.0000000000E+00   0.6576908986E+00   0.6576908986E+00   0.5034680133E+02   0.1040463635E-05   0.1040463663E-05   0.1853109102E-12  -0.4392377326E-13  -0.2474932655E-13
   0.4700000000E+01   0.0000000000E+00  -0.3504529547E-15   0.5034680133E+02   0.1040464475E-05   0.1040464435E-05  -0.1011375456E-14  -0.4130829440E-13   0.7708982102E-14
   0.4700000000E+01   0.6576908986E+00   0.8082104036E-15   0.5034680133E+02   0.1040464424E-05   0.1040464382E-05   0.2077146284E-12   0.5283876578E-13  -0.2673871800E-13
   0.4700000000E+01   0.0000000000E+00   0.6576908986E+00   0.5034680133E+02   0.1040464297E-05   0.1040464322E-05   0.1251775284E-14  -0.5278968578E-13   0.7468705894E-14
   0.4700000000E+01   0.6576908986E+00   0.6576908986E+00   0.5034680132E+02   0.1040464330E-05   0.1040464367E-05  -0.1867136452E-12   0.4156907215E-13  -0.2697899420E-13
     1     2     3     4     5     6     7     8
     2     9    10     3     6    11    12     7
 VARIABLES = X,Y,Z,S11,S22,S33,S12,S13,S23
 ZONE, T="0.1000D+02" F=FEPOINT, I=   12 J=    2 ET=BRICK
   0.0000000000E+00   0.0000000000E+00   0.0000000000E+00   0.5770060746E+02   0.5985457519E-06   0.5985457788E-06   0.3928448086E-15  -0.3009816739E-13  -0.4599906994E-14
   0.2500000000E+01   0.0000000000E+00  -0.7471584386E-15   0.5770060746E+02   0.5985458150E-06   0.5985457954E-06  -0.1727962409E-15   0.2145110174E-14   0.4588700364E-14
   0.2500000000E+01   0.6383971140E+00  -0.2191906545E-17   0.5770060745E+02   0.5985458149E-06   0.5985457949E-06   0.2299608870E-14   0.2834825318E-15  -0.1020616215E-13
   0.0000000000E+00   0.6383971140E+00  -0.7495656983E-15   0.5770060745E+02   0.5985457518E-06   0.5985457715E-06   0.1075788861E-12   0.2804450785E-13   0.1715322123E-13
   0.0000000000E+00   0.0000000000E+00   0.6383971140E+00   0.5770060745E+02   0.5985458278E-06   0.5985458144E-06  -0.5207159830E-15  -0.2480868058E-13  -0.5679570508E-14
   0.2500000000E+01   0.0000000000E+00   0.6383971140E+00   0.5770060745E+02   0.5985457657E-06   0.5985457794E-06   0.2623481818E-14  -0.2472614400E-15   0.2905786451E-14
   0.2500000000E+01   0.6383971140E+00   0.6383971140E+00   0.5770060744E+02   0.5985457656E-06   0.5985457809E-06  -0.2742139624E-14   0.1488893600E-14  -0.1188907606E-13
   0.0000000000E+00   0.6383971140E+00   0.6383971140E+00   0.5770060744E+02   0.5985458277E-06   0.5985458061E-06  -0.1075954797E-12   0.2690938287E-13   0.1607355771E-13
   0.5000000000E+01   0.0000000000E+00   0.3761915803E-15   0.5770060745E+02   0.5985457608E-06   0.5985457739E-06  -0.6343930477E-15   0.4018499639E-13  -0.7167872972E-14
   0.5000000000E+01   0.6383971140E+00  -0.7913098449E-15   0.5770060745E+02   0.5985457608E-06   0.5985457842E-06  -0.1028756241E-12  -0.2903073918E-13   0.1104992880E-13
   0.5000000000E+01   0.0000000000E+00   0.6383971140E+00   0.5770060745E+02   0.5985458145E-06   0.5985457974E-06   0.3593700666E-15   0.3011076635E-13  -0.6435367347E-14
   0.5000000000E+01   0.6383971140E+00   0.6383971140E+00   0.5770060744E+02   0.5985458144E-06   0.5985457938E-06   0.9670289091E-13  -0.2548479207E-13   0.1178243442E-13
     1     2     3     4     5     6     7     8
     2     9    10     3     6    11    12     7
 VARIABLES = X,Y,Z,S11,S22,S33,S12,S13,S23
 ZONE, T="0.1100D+02" F=FEPOINT, I=   12 J=    2 ET=BRICK
   0.0000000000E+00   0.0000000000E+00   0.0000000000E+00   0.5770060690E+02   0.2198575323E-07   0.2198550826E-07   0.4018081625E-15   0.1357929103E-12   0.1107736594E-12
   0.2500000000E+01   0.0000000000E+00   0.5206340275E-14   0.5770060690E+02   0.2198486241E-07   0.2198485557E-07   0.1042074721E-13   0.3310926429E-12   0.2966648530E-15
   0.2500000000E+01   0.6383971138E+00   0.5259528186E-14   0.5770060690E+02   0.2198486398E-07   0.2198485755E-07  -0.5018976862E-12  -0.1045736728E-12  -0.4553215826E-14
   0.0000000000E+00   0.6383971138E+00   0.1756859756E-13   0.5770060690E+02   0.2198570503E-07   0.2198543833E-07  -0.5003640209E-12  -0.3076077275E-12  -0.1533646807E-12
   0.0000000000E+00   0.0000000000E+00   0.6383971138E+00   0.5770060690E+02   0.2198396599E-07   0.2198422799E-07  -0.9053368065E-15   0.1083939337E-12   0.1062950897E-12
   0.2500000000E+01   0.0000000000E+00   0.6383971138E+00   0.5770060690E+02   0.2198485113E-07   0.2198486069E-07  -0.1075124693E-13   0.3238074358E-12   0.1028939353E-14
   0.2500000000E+01   0.6383971138E+00   0.6383971138E+00   0.5770060689E+02   0.2198484673E-07   0.2198484532E-07   0.5012704464E-12  -0.1058197447E-12  -0.3820941325E-14
   0.0000000000E+00   0.6383971138E+00   0.6383971138E+00   0.5770060689E+02   0.2198399534E-07   0.2198426355E-07   0.5080208459E-12  -0.3048752745E-12  -0.1578432503E-12
   0.5000000000E+01   0.0000000000E+00   0.9319185473E-14   0.5770060690E+02   0.2198397473E-07   0.2198423881E-07  -0.2215930679E-14   0.9175525057E-13  -0.9985061344E-13
   0.5000000000E+01   0.6383971138E+00  -0.6509877518E-14   0.5770060689E+02   0.2198398155E-07   0.2198424543E-07  -0.5260869685E-12  -0.2831531492E-12   0.1599690725E-12
   0.5000000000E+01   0.0000000000E+00   0.6383971138E+00   0.5770060689E+02   0.2198572748E-07   0.2198546204E-07   0.8460563691E-15   0.1045838130E-12  -0.1019135324E-12
   0.5000000000E+01   0.6383971138E+00   0.6383971138E+00   0.5770060689E+02   0.2198570126E-07   0.2198544131E-07   0.5159632603E-12  -0.2883777459E-12   0.1579061535E-12
     1     2     3     4     5     6     7     8
     2     9    10     3     6    11    12     7
