 VARIABLES = X,Y,Z,S11,S22,S33,S12,S13,S23
 ZONE, T="0.1000D+01" F=FEPOINT, I=   12 J=    2 ET=BRICK
   0.0000000000E+00   0.0000000000E+00   0.0000000000E+00   0.4511774169E+01   0.4773439131E-12   0.4749911257E-12   0.4766682784E-16  -0.7051005126E-15  -0.3573191002E-15
   0.1150000000E+01   0.0000000000E+00  -0.4551170292E-16   0.4511774169E+01   0.4757232979E-12   0.4804288733E-12  -0.3964066767E-15  -0.2959845697E-15   0.2539600667E-15
   0.1150000000E+01   0.9332047027E+00  -0.2115634990E-16   0.4511774168E+01   0.4773911331E-12   0.4761302782E-12  -0.2789767351E-15   0.2606470078E-15   0.5722452387E-15
   0.0000000000E+00   0.9332047027E+00  -0.3767756021E-16   0.4511774168E+01   0.4777309356E-12   0.4816970335E-12  -0.4392373539E-15   0.2092530250E-15  -0.7853367873E-16
   0.0000000000E+00   0.0000000000E+00   0.9332047027E+00   0.4511774168E+01   0.4781778305E-12   0.4767879681E-12  -0.5616833317E-17   0.1117710970E-14   0.1787256932E-15
   0.1150000000E+01   0.0000000000E+00   0.9332047027E+00   0.4511774168E+01   0.4740554630E-12   0.4768351882E-12  -0.2135978038E-15  -0.2786948556E-15  -0.5146649725E-15
   0.1150000000E+01   0.9332047027E+00   0.9332047027E+00   0.4511774168E+01   0.4802799082E-12   0.4770932030E-12   0.8319647180E-16  -0.2847734884E-16  -0.1963798005E-15
   0.0000000000E+00   0.9332047027E+00   0.9332047027E+00   0.4511774168E+01   0.4762865480E-12   0.4812155710E-12   0.1576746892E-15  -0.6621372261E-15   0.4575111146E-15
   0.2300000000E+01   0.0000000000E+00   0.3725319516E-17   0.4511774169E+01   0.4774383533E-12   0.4772694308E-12   0.8100633197E-17   0.1090240824E-14  -0.1474857146E-15
   0.2300000000E+01   0.9332047027E+00  -0.9992648684E-17   0.4511774168E+01   0.4761575406E-12   0.4777508930E-12   0.7298646980E-15  -0.2080848092E-16   0.2466869558E-15
   0.2300000000E+01   0.0000000000E+00   0.9332047027E+00   0.4511774168E+01   0.4823819860E-12   0.4773984380E-12  -0.9650933941E-17  -0.6979912307E-15  -0.4964496554E-16
   0.2300000000E+01   0.9332047027E+00   0.9332047027E+00   0.4511774168E+01   0.4809375986E-12   0.4777163256E-12   0.4206460947E-15   0.2723330570E-15   0.3445277048E-15
     1     2     3     4     5     6     7     8
     2     9    10     3     6    11    12     7
