 VARIABLES = X,Y,Z,DU1,DU2,DU3,U1,U2,U3,S11,S22,S33,S12,S13,S23
 ZONE, T="0.1000D+01" F=FEPOINT, I=   12 J=    2 ET=BRICK
   0.0000000000E+00   0.0000000000E+00   0.0000000000E+00   0.0000000000E+00   0.0000000000E+00   0.0000000000E+00   0.0000000000E+00   0.0000000000E+00   0.0000000000E+00   0.1577487207E+02   0.1461256400E+02   0.1461256400E+02  -0.3328217376E-16   0.7991803712E-15   0.7856526255E-15
   0.1050000000E+01   0.0000000000E+00   0.7925517881E-16   0.5000000000E-01   0.0000000000E+00   0.7925517881E-16   0.0000000000E+00   0.0000000000E+00   0.0000000000E+00   0.1577487207E+02   0.1461256400E+02   0.1461256400E+02   0.9843451649E-15   0.6562938796E-15   0.1704597777E-15
   0.1050000000E+01   0.9825000000E+00   0.9757819552E-16   0.5000000000E-01  -0.1750000000E-01   0.9757819552E-16   0.0000000000E+00   0.0000000000E+00   0.0000000000E+00   0.1577487207E+02   0.1461256400E+02   0.1461256400E+02   0.8577895622E-15  -0.5539708828E-15  -0.5463777981E-15
   0.0000000000E+00   0.9825000000E+00   0.9367506770E-16   0.0000000000E+00  -0.1750000000E-01   0.9367506770E-16   0.0000000000E+00   0.0000000000E+00   0.0000000000E+00   0.1577487207E+02   0.1461256400E+02   0.1461256400E+02  -0.1752767264E-15  -0.5520323600E-16   0.2937891066E-16
   0.0000000000E+00   0.0000000000E+00   0.9825000000E+00   0.0000000000E+00   0.0000000000E+00  -0.1750000000E-01   0.0000000000E+00   0.0000000000E+00   0.0000000000E+00   0.1577487207E+02   0.1461256400E+02   0.1461256400E+02   0.1459845412E-17   0.1137823716E-15   0.2425727522E-15
   0.1050000000E+01   0.0000000000E+00   0.9825000000E+00   0.5000000000E-01   0.0000000000E+00  -0.1750000000E-01   0.0000000000E+00   0.0000000000E+00   0.0000000000E+00   0.1577487207E+02   0.1461256400E+02   0.1461256400E+02  -0.1068080390E-15   0.5881584182E-15   0.5069670649E-15
   0.1050000000E+01   0.9825000000E+00   0.9825000000E+00   0.5000000000E-01  -0.1750000000E-01  -0.1750000000E-01   0.0000000000E+00   0.0000000000E+00   0.0000000000E+00   0.1577487206E+02   0.1461256400E+02   0.1461256400E+02  -0.2139080738E-15  -0.5638257152E-15  -0.3007827453E-15
   0.0000000000E+00   0.9825000000E+00   0.9825000000E+00   0.0000000000E+00  -0.1750000000E-01  -0.1750000000E-01   0.0000000000E+00   0.0000000000E+00   0.0000000000E+00   0.1577487206E+02   0.1461256400E+02   0.1461256400E+02   0.5041436269E-16   0.3166097676E-15  -0.5180828953E-15
   0.2100000000E+01   0.0000000000E+00   0.1021063655E-15   0.1000000000E+00   0.0000000000E+00   0.1021063655E-15   0.0000000000E+00   0.0000000000E+00   0.0000000000E+00   0.1577487207E+02   0.1461256400E+02   0.1461256400E+02  -0.3291876461E-19   0.5226317030E-15   0.2667760936E-15
   0.2100000000E+01   0.9825000000E+00   0.1353084311E-15   0.1000000000E+00  -0.1750000000E-01   0.1353084311E-15   0.0000000000E+00   0.0000000000E+00   0.0000000000E+00   0.1577487207E+02   0.1461256400E+02   0.1461256400E+02  -0.1450486476E-15   0.4478333117E-16  -0.2620034664E-15
   0.2100000000E+01   0.0000000000E+00   0.9825000000E+00   0.1000000000E+00   0.0000000000E+00  -0.1750000000E-01   0.0000000000E+00   0.0000000000E+00   0.0000000000E+00   0.1577487207E+02   0.1461256400E+02   0.1461256400E+02   0.2293850026E-16  -0.8025788323E-16   0.1472842547E-15
   0.2100000000E+01   0.9825000000E+00   0.9825000000E+00   0.1000000000E+00  -0.1750000000E-01  -0.1750000000E-01   0.0000000000E+00   0.0000000000E+00   0.0000000000E+00   0.1577487206E+02   0.1461256400E+02   0.1461256400E+02  -0.6069658688E-16   0.1891909182E-15  -0.5201344638E-15
     1     2     3     4     5     6     7     8
     2     9    10     3     6    11    12     7
 VARIABLES = X,Y,Z,DU1,DU2,DU3,U1,U2,U3,S11,S22,S33,S12,S13,S23
 ZONE, T="0.2000D+01" F=FEPOINT, I=   12 J=    2 ET=BRICK
   0.0000000000E+00   0.0000000000E+00   0.0000000000E+00   0.0000000000E+00   0.0000000000E+00   0.0000000000E+00   0.0000000000E+00   0.0000000000E+00   0.0000000000E+00   0.1258958997E+01   0.2098571889E-03   0.2098571889E-03  -0.4764613456E-17   0.1331644336E-14   0.8407493690E-14
   0.1100000000E+01   0.0000000000E+00   0.2411265632E-15   0.5000000000E-01   0.0000000000E+00   0.1618713844E-15   0.5000000000E-01   0.0000000000E+00   0.7925517881E-16   0.1258958997E+01   0.2098571888E-03   0.2098571888E-03  -0.3228375472E-14  -0.4524912673E-15   0.1467432654E-14
   0.1100000000E+01   0.9502098965E+00   0.5902890261E-15   0.5000000000E-01  -0.3229010355E-01   0.4927108306E-15   0.5000000000E-01  -0.1750000000E-01   0.9757819552E-16   0.1258958997E+01   0.2098571888E-03   0.2098571888E-03   0.3775895325E-14  -0.7649668114E-14  -0.2197427857E-14
   0.0000000000E+00   0.9502098965E+00   0.2002168748E-14   0.0000000000E+00  -0.3229010355E-01   0.1908493681E-14   0.0000000000E+00  -0.1750000000E-01   0.9367506770E-16   0.1258958997E+01   0.2098571889E-03   0.2098571889E-03   0.4692080142E-14  -0.6089633269E-14   0.4437283845E-14
   0.0000000000E+00   0.0000000000E+00   0.9502098965E+00   0.0000000000E+00   0.0000000000E+00  -0.3229010355E-01   0.0000000000E+00   0.0000000000E+00  -0.1750000000E-01   0.1258958997E+01   0.2098571888E-03   0.2098571889E-03  -0.1370227166E-16   0.6211111733E-14   0.5083473318E-15
   0.1100000000E+01   0.0000000000E+00   0.9502098965E+00   0.5000000000E-01   0.0000000000E+00  -0.3229010355E-01   0.5000000000E-01   0.0000000000E+00  -0.1750000000E-01   0.1258958997E+01   0.2098571888E-03   0.2098571888E-03  -0.4485828540E-14  -0.6627364885E-15   0.1310198961E-14
   0.1100000000E+01   0.9502098965E+00   0.9502098965E+00   0.5000000000E-01  -0.3229010355E-01  -0.3229010355E-01   0.5000000000E-01  -0.1750000000E-01  -0.1750000000E-01   0.1258958997E+01   0.2098571888E-03   0.2098571888E-03  -0.1339246520E-14   0.5469859996E-14  -0.2328417496E-14
   0.0000000000E+00   0.9502098965E+00   0.9502098965E+00   0.0000000000E+00  -0.3229010355E-01  -0.3229010355E-01   0.0000000000E+00  -0.1750000000E-01  -0.1750000000E-01   0.1258958997E+01   0.2098571888E-03   0.2098571888E-03   0.7105079618E-14   0.3730473626E-14  -0.3511374257E-14
   0.2200000000E+01   0.0000000000E+00   0.2042127309E-15   0.1000000000E+00   0.0000000000E+00   0.1021063655E-15   0.1000000000E+00   0.0000000000E+00   0.1021063655E-15   0.1258958997E+01   0.2098571889E-03   0.2098571889E-03  -0.7464312638E-16  -0.1136396461E-15  -0.3761591669E-14
   0.2200000000E+01   0.9502098965E+00  -0.6921546669E-15   0.1000000000E+00  -0.3229010355E-01  -0.8274630980E-15   0.1000000000E+00  -0.1750000000E-01   0.1353084311E-15   0.1258958997E+01   0.2098571888E-03   0.2098571888E-03   0.9251452604E-14  -0.5378111181E-14  -0.1532045176E-13
   0.2200000000E+01   0.0000000000E+00   0.9502098965E+00   0.1000000000E+00   0.0000000000E+00  -0.3229010355E-01   0.1000000000E+00   0.0000000000E+00  -0.1750000000E-01   0.1258958997E+01   0.2098571888E-03   0.2098571888E-03   0.5229005871E-16  -0.6744424121E-14   0.1533084171E-13
   0.2200000000E+01   0.9502098965E+00   0.9502098965E+00   0.1000000000E+00  -0.3229010355E-01  -0.3229010355E-01   0.1000000000E+00  -0.1750000000E-01  -0.1750000000E-01   0.1258958997E+01   0.2098571888E-03   0.2098571889E-03  -0.7494604643E-15   0.1148060851E-13   0.3651473291E-14
     1     2     3     4     5     6     7     8
     2     9    10     3     6    11    12     7
 VARIABLES = X,Y,Z,DU1,DU2,DU3,U1,U2,U3,S11,S22,S33,S12,S13,S23
 ZONE, T="0.3000D+01" F=FEPOINT, I=   12 J=    2 ET=BRICK
   0.0000000000E+00   0.0000000000E+00   0.0000000000E+00   0.0000000000E+00   0.0000000000E+00   0.0000000000E+00   0.0000000000E+00   0.0000000000E+00   0.0000000000E+00   0.1310911967E+01   0.1990783307E-04   0.1990783308E-04   0.2214377223E-16   0.9846250417E-14   0.1459249688E-14
   0.1150000000E+01   0.0000000000E+00   0.2647188024E-14   0.5000000000E-01   0.0000000000E+00   0.2406061461E-14   0.1000000000E+00   0.0000000000E+00   0.2411265632E-15   0.1310911967E+01   0.1990783311E-04   0.1990783311E-04   0.4862590786E-15  -0.1222127005E-14  -0.3565386651E-14
   0.1150000000E+01   0.9252184920E+00   0.1428755407E-14   0.5000000000E-01  -0.2499140449E-01   0.8384663810E-15   0.1000000000E+00  -0.4979010355E-01   0.5902890261E-15   0.1310911967E+01   0.1990783305E-04   0.1990783305E-04   0.1055345839E-14  -0.2225467992E-14  -0.3150672281E-15
   0.0000000000E+00   0.9252184920E+00   0.4894822323E-15   0.0000000000E+00  -0.2499140449E-01  -0.1512686516E-14   0.0000000000E+00  -0.4979010355E-01   0.2002168748E-14   0.1310911967E+01   0.1990783312E-04   0.1990783311E-04  -0.3277435793E-14   0.2459688071E-14   0.2011750915E-14
   0.0000000000E+00   0.0000000000E+00   0.9252184920E+00   0.0000000000E+00   0.0000000000E+00  -0.2499140449E-01   0.0000000000E+00   0.0000000000E+00  -0.4979010355E-01   0.1310911967E+01   0.1990783311E-04   0.1990783311E-04  -0.8644403420E-17  -0.4220614572E-15  -0.4091261937E-14
   0.1150000000E+01   0.0000000000E+00   0.9252184920E+00   0.5000000000E-01   0.0000000000E+00  -0.2499140449E-01   0.1000000000E+00   0.0000000000E+00  -0.4979010355E-01   0.1310911967E+01   0.1990783308E-04   0.1990783307E-04  -0.3858609366E-15  -0.1051909674E-14  -0.1090387704E-16
   0.1150000000E+01   0.9252184920E+00   0.9252184920E+00   0.5000000000E-01  -0.2499140449E-01  -0.2499140449E-01   0.1000000000E+00  -0.4979010355E-01  -0.4979010355E-01   0.1310911967E+01   0.1990783309E-04   0.1990783308E-04  -0.2104164421E-16  -0.1340910911E-14   0.3154215680E-14
   0.0000000000E+00   0.9252184920E+00   0.9252184920E+00   0.0000000000E+00  -0.2499140449E-01  -0.2499140449E-01   0.0000000000E+00  -0.4979010355E-01  -0.4979010355E-01   0.1310911967E+01   0.1990783307E-04   0.1990783306E-04   0.6716224576E-15   0.5338825358E-14  -0.3483663325E-14
   0.2300000000E+01   0.0000000000E+00   0.2304368775E-14   0.1000000000E+00   0.0000000000E+00   0.2100156044E-14   0.2000000000E+00   0.0000000000E+00   0.2042127309E-15   0.1310911967E+01   0.1990783293E-04   0.1990783294E-04   0.6609686836E-16  -0.3033042747E-14   0.1339196706E-14
   0.2300000000E+01   0.9252184920E+00   0.2746934624E-14   0.1000000000E+00  -0.2499140449E-01   0.3439089291E-14   0.2000000000E+00  -0.4979010355E-01  -0.6921546669E-15   0.1310911967E+01   0.1990783322E-04   0.1990783322E-04   0.4410195617E-14   0.4033491592E-14   0.1399765161E-14
   0.2300000000E+01   0.0000000000E+00   0.9252184920E+00   0.1000000000E+00   0.0000000000E+00  -0.2499140449E-01   0.2000000000E+00   0.0000000000E+00  -0.4979010355E-01   0.1310911967E+01   0.1990783318E-04   0.1990783318E-04  -0.4141283706E-16   0.7608286173E-14  -0.2727616632E-14
   0.2300000000E+01   0.9252184920E+00   0.9252184920E+00   0.1000000000E+00  -0.2499140449E-01  -0.2499140449E-01   0.2000000000E+00  -0.4979010355E-01  -0.4979010355E-01   0.1310911967E+01   0.1990783299E-04   0.1990783298E-04   0.5229457630E-16   0.2837773688E-14  -0.2373439950E-14
     1     2     3     4     5     6     7     8
     2     9    10     3     6    11    12     7
