 VARIABLES = X,Y,Z,AX,AY,AZ,DU1,DU2,DU3,DAX,DAY,DAZ
 ZONE, T="0.1000D+01" F=FEPOINT, I=    8 J=    7  ET=LINESEG
   0.0000000000E+00   0.0000000000E+00   0.0000000000E+00   0.0000000000E+00   0.0000000000E+00   0.0000000000E+00   0.0000000000E+00   0.0000000000E+00   0.0000000000E+00  -0.1676307593E-03  -0.3758067240E-04  -0.5440064825E-02
   0.1000000000E+01   0.0000000000E+00   0.0000000000E+00   0.0000000000E+00   0.0000000000E+00   0.0000000000E+00   0.8333333333E-03   0.6828953714E-02   0.6932386469E-04  -0.1676307593E-03  -0.3344042883E-04  -0.6134509269E-02
   0.2000000000E+01   0.0000000000E+00   0.0000000000E+00   0.0000000000E+00   0.0000000000E+00   0.0000000000E+00   0.1666666667E-02   0.0000000000E+00   0.1303672422E-03  -0.1676307593E-03  -0.2101969812E-04  -0.7523398158E-02
   0.2000000000E+01   0.1000000000E+01   0.0000000000E+00   0.0000000000E+00   0.0000000000E+00   0.0000000000E+00   0.9884509269E-02   0.6250000000E-02  -0.5520324759E-05  -0.1717710029E-03  -0.8280487138E-05  -0.8912287047E-02
   0.2000000000E+01   0.1000000000E+01   0.1000000000E+01   0.0000000000E+00   0.0000000000E+00   0.0000000000E+00   0.9884509269E-02   0.6250000000E-02   0.5520324759E-05   0.1717710029E-03   0.8280487138E-05  -0.8912287047E-02
   0.2000000000E+01   0.0000000000E+00   0.1000000000E+01   0.0000000000E+00   0.0000000000E+00   0.0000000000E+00   0.1666666667E-02   0.0000000000E+00  -0.1303672422E-03   0.1676307593E-03   0.2101969812E-04  -0.7523398158E-02
   0.1000000000E+01   0.0000000000E+00   0.1000000000E+01   0.0000000000E+00   0.0000000000E+00   0.0000000000E+00   0.8333333333E-03   0.6828953714E-02  -0.6932386469E-04   0.1676307593E-03   0.3344042883E-04  -0.6134509269E-02
   0.0000000000E+00   0.0000000000E+00   0.1000000000E+01   0.0000000000E+00   0.0000000000E+00   0.0000000000E+00   0.0000000000E+00   0.0000000000E+00   0.0000000000E+00   0.1676307593E-03   0.3758067240E-04  -0.5440064825E-02
           1           2
           2           3
           8           7
           7           6
           3           4
           5           6
           4           5
 VARIABLES = X,Y,Z,AX,AY,AZ,DU1,DU2,DU3,DAX,DAY,DAZ
 ZONE, T="0.2000D+01" F=FEPOINT, I=    8 J=    7  ET=LINESEG
   0.0000000000E+00   0.0000000000E+00   0.0000000000E+00  -0.1676307593E-03  -0.3758067240E-04  -0.5440064825E-02   0.0000000000E+00   0.0000000000E+00   0.0000000000E+00  -0.3348798330E-03  -0.7547458181E-04  -0.1071254947E-01
   0.1000833333E+01   0.6828953714E-02   0.6932386469E-04  -0.1676307593E-03  -0.3344042883E-04  -0.6134509269E-02   0.1635922333E-02   0.1365121281E-01   0.1361913069E-03  -0.3348400664E-03  -0.6727188979E-04  -0.1209447333E-01
   0.2001666667E+01   0.0000000000E+00   0.1303672422E-03  -0.1676307593E-03  -0.2101969812E-04  -0.7523398158E-02   0.3216250855E-02   0.0000000000E+00   0.2605654328E-03  -0.3346387688E-03  -0.4265914094E-04  -0.1485033373E-01
   0.2009884509E+01   0.1006250000E+01  -0.5520324759E-05  -0.1717710029E-03  -0.8280487138E-05  -0.8912287047E-02   0.1945891064E-01   0.1269185705E-01  -0.1095761565E-04  -0.3433541189E-03  -0.1645027334E-04  -0.1764564926E-01
   0.2009884509E+01   0.1006250000E+01   0.1000005520E+01   0.1717710029E-03   0.8280487138E-05  -0.8912287047E-02   0.1945891064E-01   0.1269185705E-01   0.1095761565E-04   0.3433541189E-03   0.1645027334E-04  -0.1764564926E-01
   0.2001666667E+01   0.0000000000E+00   0.9998696328E+00   0.1676307593E-03   0.2101969812E-04  -0.7523398158E-02   0.3216250855E-02   0.0000000000E+00  -0.2605654328E-03   0.3346387688E-03   0.4265914094E-04  -0.1485033373E-01
   0.1000833333E+01   0.6828953714E-02   0.9999306761E+00   0.1676307593E-03   0.3344042883E-04  -0.6134509269E-02   0.1635922333E-02   0.1365121281E-01  -0.1361913069E-03   0.3348400664E-03   0.6727188979E-04  -0.1209447333E-01
   0.0000000000E+00   0.0000000000E+00   0.1000000000E+01   0.1676307593E-03   0.3758067240E-04  -0.5440064825E-02   0.0000000000E+00   0.0000000000E+00   0.0000000000E+00   0.3348798330E-03   0.7547458181E-04  -0.1071254947E-01
           1           2
           2           3
           8           7
           7           6
           3           4
           5           6
           4           5
 VARIABLES = X,Y,Z,AX,AY,AZ,DU1,DU2,DU3,DAX,DAY,DAZ
 ZONE, T="0.3000D+01" F=FEPOINT, I=    8 J=    7  ET=LINESEG
   0.0000000000E+00   0.0000000000E+00   0.0000000000E+00  -0.5025105923E-03  -0.1130552542E-03  -0.1615261429E-01   0.0000000000E+00   0.0000000000E+00   0.0000000000E+00  -0.5013841198E-03  -0.1139321324E-03  -0.1573076067E-01
   0.1002469256E+01   0.2048016652E-01   0.2055151715E-03  -0.5024708257E-03  -0.1007123186E-03  -0.1822898260E-01   0.2392569589E-02   0.2046348522E-01   0.1994467717E-03  -0.5012480656E-03  -0.1017828211E-03  -0.1778983390E-01
   0.2004882918E+01   0.0000000000E+00   0.3909326751E-03  -0.5022695281E-03  -0.6367883906E-04  -0.2237373189E-01   0.4595116392E-02   0.0000000000E+00   0.3906499216E-03  -0.5005740560E-03  -0.6532694887E-04  -0.2187932497E-01
   0.2029343420E+01   0.1018941857E+01  -0.1647794041E-04  -0.5151251218E-03  -0.2473076048E-04  -0.2655793631E-01   0.2857194981E-01   0.1948861714E-01  -0.1626824705E-04  -0.5146290720E-03  -0.2444742711E-04  -0.2610843170E-01
   0.2029343420E+01   0.1018941857E+01   0.1000016478E+01   0.5151251218E-03   0.2473076048E-04  -0.2655793631E-01   0.2857194981E-01   0.1948861714E-01   0.1626824705E-04   0.5146290720E-03   0.2444742711E-04  -0.2610843170E-01
   0.2004882918E+01   0.0000000000E+00   0.9996090673E+00   0.5022695281E-03   0.6367883906E-04  -0.2237373189E-01   0.4595116392E-02   0.0000000000E+00  -0.3906499216E-03   0.5005740560E-03   0.6532694887E-04  -0.2187932497E-01
   0.1002469256E+01   0.2048016652E-01   0.9997944848E+00   0.5024708257E-03   0.1007123186E-03  -0.1822898260E-01   0.2392569589E-02   0.2046348522E-01  -0.1994467717E-03   0.5012480656E-03   0.1017828211E-03  -0.1778983390E-01
   0.0000000000E+00   0.0000000000E+00   0.1000000000E+01   0.5025105923E-03   0.1130552542E-03  -0.1615261429E-01   0.0000000000E+00   0.0000000000E+00   0.0000000000E+00   0.5013841198E-03   0.1139321324E-03  -0.1573076067E-01
           1           2
           2           3
           8           7
           7           6
           3           4
           5           6
           4           5
 VARIABLES = X,Y,Z,AX,AY,AZ,DU1,DU2,DU3,DAX,DAY,DAZ
 ZONE, T="0.4000D+01" F=FEPOINT, I=    8 J=    7  ET=LINESEG
   0.0000000000E+00   0.0000000000E+00   0.0000000000E+00  -0.1003894712E-02  -0.2269873867E-03  -0.3188337497E-01   0.0000000000E+00   0.0000000000E+00   0.0000000000E+00  -0.6665580397E-03  -0.1533175492E-03  -0.2040348873E-01
   0.1004861825E+01   0.4094365174E-01   0.4049619432E-03  -0.1003718891E-02  -0.2024951397E-03  -0.3601881650E-01   0.3088535398E-02   0.2726292441E-01   0.2580504643E-03  -0.6662550863E-03  -0.1373755369E-03  -0.2312603498E-01
   0.2009478034E+01   0.0000000000E+00   0.7815825967E-03  -0.1002843584E-02  -0.1290057879E-03  -0.4425305686E-01   0.5756064278E-02   0.0000000000E+00   0.5208598225E-03  -0.6648005860E-03  -0.8955377314E-04  -0.2850359408E-01
   0.2057915370E+01   0.1038430474E+01  -0.3274618746E-04  -0.1029754194E-02  -0.4917818759E-04  -0.5266636800E-01   0.3707455728E-01   0.2688971801E-01  -0.2140583673E-04  -0.6854424456E-03  -0.3220178843E-04  -0.3420447243E-01
   0.2057915370E+01   0.1038430474E+01   0.1000032746E+01   0.1029754194E-02   0.4917818759E-04  -0.5266636800E-01   0.3707455728E-01   0.2688971801E-01   0.2140583673E-04   0.6854424456E-03   0.3220178843E-04  -0.3420447243E-01
   0.2009478034E+01   0.0000000000E+00   0.9992184174E+00   0.1002843584E-02   0.1290057879E-03  -0.4425305686E-01   0.5756064278E-02   0.0000000000E+00  -0.5208598225E-03   0.6648005860E-03   0.8955377314E-04  -0.2850359408E-01
   0.1004861825E+01   0.4094365174E-01   0.9995950381E+00   0.1003718891E-02   0.2024951397E-03  -0.3601881650E-01   0.3088535398E-02   0.2726292441E-01  -0.2580504643E-03   0.6662550863E-03   0.1373755369E-03  -0.2312603498E-01
   0.0000000000E+00   0.0000000000E+00   0.1000000000E+01   0.1003894712E-02   0.2269873867E-03  -0.3188337497E-01   0.0000000000E+00   0.0000000000E+00   0.0000000000E+00   0.6665580397E-03   0.1533175492E-03  -0.2040348873E-01
           1           2
           2           3
           8           7
           7           6
           3           4
           5           6
           4           5
 VARIABLES = X,Y,Z,AX,AY,AZ,DU1,DU2,DU3,DAX,DAY,DAZ
 ZONE, T="0.5000D+01" F=FEPOINT, I=    8 J=    7  ET=LINESEG
   0.0000000000E+00   0.0000000000E+00   0.0000000000E+00  -0.1670452752E-02  -0.3803049358E-03  -0.5228686370E-01   0.0000000000E+00   0.0000000000E+00   0.0000000000E+00  -0.8294663765E-03  -0.1941467390E-03  -0.2463328312E-01
   0.1007950361E+01   0.6820657615E-01   0.6630124076E-03  -0.1669973978E-02  -0.3398706766E-03  -0.5914485148E-01   0.3709882854E-02   0.3404752764E-01   0.3111758461E-03  -0.8289145660E-03  -0.1746049597E-03  -0.2800211779E-01
   0.2015234098E+01   0.0000000000E+00   0.1302442419E-02  -0.1667644170E-02  -0.2185595611E-03  -0.7275665094E-01   0.6661221403E-02   0.0000000000E+00   0.6517052150E-03  -0.8263802907E-03  -0.1160342859E-03  -0.3460849064E-01
   0.2094989927E+01   0.1065320192E+01  -0.5415202419E-04  -0.1715196639E-02  -0.8137997602E-04  -0.8687084043E-01   0.4481987962E-01   0.3527570517E-01  -0.2632110675E-04  -0.8555923724E-03  -0.3963240451E-04  -0.4183022305E-01
   0.2094989927E+01   0.1065320192E+01   0.1000054152E+01   0.1715196639E-02   0.8137997602E-04  -0.8687084043E-01   0.4481987962E-01   0.3527570517E-01   0.2632110675E-04   0.8555923724E-03   0.3963240451E-04  -0.4183022305E-01
   0.2015234098E+01   0.0000000000E+00   0.9986975576E+00   0.1667644170E-02   0.2185595611E-03  -0.7275665094E-01   0.6661221403E-02   0.0000000000E+00  -0.6517052150E-03   0.8263802907E-03   0.1160342859E-03  -0.3460849064E-01
   0.1007950361E+01   0.6820657615E-01   0.9993369876E+00   0.1669973978E-02   0.3398706766E-03  -0.5914485148E-01   0.3709882854E-02   0.3404752764E-01  -0.3111758461E-03   0.8289145660E-03   0.1746049597E-03  -0.2800211779E-01
   0.0000000000E+00   0.0000000000E+00   0.1000000000E+01   0.1670452752E-02   0.3803049358E-03  -0.5228686370E-01   0.0000000000E+00   0.0000000000E+00   0.0000000000E+00   0.8294663765E-03   0.1941467390E-03  -0.2463328312E-01
           1           2
           2           3
           8           7
           7           6
           3           4
           5           6
           4           5
 VARIABLES = X,Y,Z,AX,AY,AZ,DU1,DU2,DU3,DAX,DAY,DAZ
 ZONE, T="0.6000D+01" F=FEPOINT, I=    8 J=    7  ET=LINESEG
   0.0000000000E+00   0.0000000000E+00   0.0000000000E+00  -0.2499919128E-02  -0.5744516749E-03  -0.7692014682E-01   0.0000000000E+00   0.0000000000E+00   0.0000000000E+00  -0.9886073400E-03  -0.2371074759E-03  -0.2831508926E-01
   0.1011660244E+01   0.1022541038E+00   0.9741882537E-03  -0.2498888544E-02  -0.5144756363E-03  -0.8714696927E-01   0.4243651009E-02   0.4081666036E-01   0.3583668422E-03  -0.9877160750E-03  -0.2141997258E-03  -0.3230900695E-01
   0.2021895320E+01   0.0000000000E+00   0.1954147634E-02  -0.2494024461E-02  -0.3345938470E-03  -0.1073651416E+00   0.7285539163E-02   0.0000000000E+00   0.7840464761E-03  -0.9838688710E-03  -0.1456500710E-03  -0.4006871046E-01
   0.2139809807E+01   0.1100595897E+01  -0.8047313094E-04  -0.2570789012E-02  -0.1210123805E-03  -0.1287010635E+00   0.5166297256E-01   0.4522606749E-01  -0.3096323490E-04  -0.1024808122E-02  -0.4664620412E-04  -0.4887112818E-01
   0.2139809807E+01   0.1100595897E+01   0.1000080473E+01   0.2570789012E-02   0.1210123805E-03  -0.1287010635E+00   0.5166297256E-01   0.4522606749E-01   0.3096323490E-04   0.1024808122E-02   0.4664620412E-04  -0.4887112818E-01
   0.2021895320E+01   0.0000000000E+00   0.9980458524E+00   0.2494024461E-02   0.3345938470E-03  -0.1073651416E+00   0.7285539163E-02   0.0000000000E+00  -0.7840464761E-03   0.9838688710E-03   0.1456500710E-03  -0.4006871046E-01
   0.1011660244E+01   0.1022541038E+00   0.9990258117E+00   0.2498888544E-02   0.5144756363E-03  -0.8714696927E-01   0.4243651009E-02   0.4081666036E-01  -0.3583668422E-03   0.9877160750E-03   0.2141997258E-03  -0.3230900695E-01
   0.0000000000E+00   0.0000000000E+00   0.1000000000E+01   0.2499919128E-02   0.5744516749E-03  -0.7692014682E-01   0.0000000000E+00   0.0000000000E+00   0.0000000000E+00   0.9886073400E-03   0.2371074759E-03  -0.2831508926E-01
           1           2
           2           3
           8           7
           7           6
           3           4
           5           6
           4           5
 VARIABLES = X,Y,Z,AX,AY,AZ,DU1,DU2,DU3,DAX,DAY,DAZ
 ZONE, T="0.7000D+01" F=FEPOINT, I=    8 J=    7  ET=LINESEG
   0.0000000000E+00   0.0000000000E+00   0.0000000000E+00  -0.3488526468E-02  -0.8115591508E-03  -0.1052352361E+00   0.0000000000E+00   0.0000000000E+00   0.0000000000E+00  -0.1141502872E-02  -0.2830189414E-03  -0.3133529267E-01
   0.1015903895E+01   0.1430707641E+00   0.1332555096E-02  -0.3486604619E-02  -0.7286753621E-03  -0.1194559762E+00   0.4677379322E-02   0.4757174913E-01   0.3997848989E-03  -0.1140176020E-02  -0.2570219476E-03  -0.3592795824E-01
   0.2029180859E+01   0.0000000000E+00   0.2738194110E-02  -0.3477893332E-02  -0.4802439180E-03  -0.1474338520E+00   0.7621127685E-02   0.0000000000E+00   0.9190892111E-03  -0.1134921563E-02  -0.1794267348E-03  -0.4474507978E-01
   0.2191472779E+01   0.1145821965E+01  -0.1114363658E-03  -0.3595597134E-02  -0.1676585847E-03  -0.1775721917E+00   0.5745888961E-01   0.5763233542E-01  -0.3528378189E-04  -0.1192721293E-02  -0.5313998293E-04  -0.5519665571E-01
   0.2191472779E+01   0.1145821965E+01   0.1000111436E+01   0.3595597134E-02   0.1676585847E-03  -0.1775721917E+00   0.5745888961E-01   0.5763233542E-01   0.3528378189E-04   0.1192721293E-02   0.5313998293E-04  -0.5519665571E-01
   0.2029180859E+01   0.0000000000E+00   0.9972618059E+00   0.3477893332E-02   0.4802439180E-03  -0.1474338520E+00   0.7621127685E-02   0.0000000000E+00  -0.9190892111E-03   0.1134921563E-02   0.1794267348E-03  -0.4474507978E-01
   0.1015903895E+01   0.1430707641E+00   0.9986674449E+00   0.3486604619E-02   0.7286753621E-03  -0.1194559762E+00   0.4677379322E-02   0.4757174913E-01  -0.3997848989E-03   0.1140176020E-02   0.2570219476E-03  -0.3592795824E-01
   0.0000000000E+00   0.0000000000E+00   0.1000000000E+01   0.3488526468E-02   0.8115591508E-03  -0.1052352361E+00   0.0000000000E+00   0.0000000000E+00   0.0000000000E+00   0.1141502872E-02   0.2830189414E-03  -0.3133529267E-01
           1           2
           2           3
           8           7
           7           6
           3           4
           5           6
           4           5
 VARIABLES = X,Y,Z,AX,AY,AZ,DU1,DU2,DU3,DAX,DAY,DAZ
 ZONE, T="0.8000D+01" F=FEPOINT, I=    8 J=    7  ET=LINESEG
   0.0000000000E+00   0.0000000000E+00   0.0000000000E+00  -0.4630029340E-02  -0.1094578092E-02  -0.1365705288E+00   0.0000000000E+00   0.0000000000E+00   0.0000000000E+00  -0.1283870195E-02  -0.3326175391E-03  -0.3357083874E-01
   0.1020581274E+01   0.1906425133E+00   0.1732339995E-02  -0.4626780639E-02  -0.9856973096E-03  -0.1553839345E+00   0.4997085393E-02   0.5431715027E-01   0.4365938652E-03  -0.1282011426E-02  -0.3038510375E-03  -0.3872870982E-01
   0.2036801986E+01   0.0000000000E+00   0.3657283321E-02  -0.4612814894E-02  -0.6596706528E-03  -0.1921789318E+00   0.7682788561E-02   0.0000000000E+00   0.1058063788E-02  -0.1275484385E-02  -0.2183056847E-03  -0.4848010341E-01
   0.2248931669E+01   0.1203454300E+01  -0.1467201477E-03  -0.4788318427E-02  -0.2207985676E-03  -0.2327688474E+00   0.6205587765E-01   0.7390363873E-01  -0.3924458499E-04  -0.1358822746E-02  -0.5900956728E-04  -0.6065240319E-01
   0.2248931669E+01   0.1203454300E+01   0.1000146720E+01   0.4788318427E-02   0.2207985676E-03  -0.2327688474E+00   0.6205587765E-01   0.7390363873E-01   0.3924458499E-04   0.1358822746E-02   0.5900956728E-04  -0.6065240319E-01
   0.2036801986E+01   0.0000000000E+00   0.9963427167E+00   0.4612814894E-02   0.6596706528E-03  -0.1921789318E+00   0.7682788561E-02   0.0000000000E+00  -0.1058063788E-02   0.1275484385E-02   0.2183056847E-03  -0.4848010341E-01
   0.1020581274E+01   0.1906425133E+00   0.9982676600E+00   0.4626780639E-02   0.9856973096E-03  -0.1553839345E+00   0.4997085393E-02   0.5431715027E-01  -0.4365938652E-03   0.1282011426E-02   0.3038510375E-03  -0.3872870982E-01
   0.0000000000E+00   0.0000000000E+00   0.1000000000E+01   0.4630029340E-02   0.1094578092E-02  -0.1365705288E+00   0.0000000000E+00   0.0000000000E+00   0.0000000000E+00   0.1283870195E-02   0.3326175391E-03  -0.3357083874E-01
           1           2
           2           3
           8           7
           7           6
           3           4
           5           6
           4           5
 VARIABLES = X,Y,Z,AX,AY,AZ,DU1,DU2,DU3,DAX,DAY,DAZ
 ZONE, T="0.9000D+01" F=FEPOINT, I=    8 J=    7  ET=LINESEG
   0.0000000000E+00   0.0000000000E+00   0.0000000000E+00  -0.5913899536E-02  -0.1427195631E-02  -0.1701413675E+00   0.0000000000E+00   0.0000000000E+00   0.0000000000E+00  -0.1407859577E-02  -0.3858549127E-03  -0.3488729843E-01
   0.1025578359E+01   0.2449596635E+00   0.2168933860E-02  -0.5908792065E-02  -0.1289548347E-02  -0.1941126443E+00   0.5182017623E-02   0.6106111136E-01   0.4715427598E-03  -0.1405384896E-02  -0.3546750688E-03  -0.4056598615E-01
   0.2044484775E+01   0.0000000000E+00   0.4715347109E-02  -0.5888299280E-02  -0.8779763375E-03  -0.2406590352E+00   0.7515434126E-02   0.0000000000E+00   0.1200884202E-02  -0.1398058253E-02  -0.2624073452E-03  -0.5109028767E-01
   0.2310987546E+01   0.1277357939E+01  -0.1859647327E-03  -0.6147141173E-02  -0.2798081349E-03  -0.2934212506E+00   0.6527444431E-01   0.9637400876E-01  -0.4283080724E-04  -0.1522394704E-02  -0.6417218559E-04  -0.6504552273E-01
   0.2310987546E+01   0.1277357939E+01   0.1000185965E+01   0.6147141173E-02   0.2798081349E-03  -0.2934212506E+00   0.6527444431E-01   0.9637400876E-01   0.4283080724E-04   0.1522394704E-02   0.6417218559E-04  -0.6504552273E-01
   0.2044484775E+01   0.0000000000E+00   0.9952846529E+00   0.5888299280E-02   0.8779763375E-03  -0.2406590352E+00   0.7515434126E-02   0.0000000000E+00  -0.1200884202E-02   0.1398058253E-02   0.2624073452E-03  -0.5109028767E-01
   0.1025578359E+01   0.2449596635E+00   0.9978310661E+00   0.5908792065E-02   0.1289548347E-02  -0.1941126443E+00   0.5182017623E-02   0.6106111136E-01  -0.4715427598E-03   0.1405384896E-02   0.3546750688E-03  -0.4056598615E-01
   0.0000000000E+00   0.0000000000E+00   0.1000000000E+01   0.5913899536E-02   0.1427195631E-02  -0.1701413675E+00   0.0000000000E+00   0.0000000000E+00   0.0000000000E+00   0.1407859577E-02   0.3858549127E-03  -0.3488729843E-01
           1           2
           2           3
           8           7
           7           6
           3           4
           5           6
           4           5
 VARIABLES = X,Y,Z,AX,AY,AZ,DU1,DU2,DU3,DAX,DAY,DAZ
 ZONE, T="0.1000D+02" F=FEPOINT, I=    8 J=    7  ET=LINESEG
   0.0000000000E+00   0.0000000000E+00   0.0000000000E+00  -0.7321759113E-02  -0.1813050544E-02  -0.2050286659E+00   0.0000000000E+00   0.0000000000E+00   0.0000000000E+00  -0.1498118971E-02  -0.4397586110E-03  -0.3513332056E-01
   0.1030760377E+01   0.3060207749E+00   0.2640476620E-02  -0.7314176961E-02  -0.1644223416E-02  -0.2346786304E+00   0.5192937114E-02   0.6781654632E-01   0.5097066698E-03  -0.1494987583E-02  -0.4065376037E-03  -0.4127138334E-01
   0.2052000209E+01   0.0000000000E+00   0.5916231311E-02  -0.7286357533E-02  -0.1140383683E-02  -0.2917493229E+00   0.7204834190E-02   0.0000000000E+00   0.1341502501E-02  -0.1487801083E-02  -0.3088287536E-03  -0.5235101872E-01
   0.2376261991E+01   0.1373731948E+01  -0.2287955400E-03  -0.7669535876E-02  -0.3439803204E-03  -0.3584667733E+00   0.6684420320E-01   0.1291906390E+00  -0.4606838021E-04  -0.1682399757E-02  -0.6860855435E-04  -0.6811477742E-01
   0.2376261991E+01   0.1373731948E+01   0.1000228796E+01   0.7669535876E-02   0.3439803204E-03  -0.3584667733E+00   0.6684420320E-01   0.1291906390E+00   0.4606838021E-04   0.1682399757E-02   0.6860855435E-04  -0.6811477742E-01
   0.2052000209E+01   0.0000000000E+00   0.9940837687E+00   0.7286357533E-02   0.1140383683E-02  -0.2917493229E+00   0.7204834190E-02   0.0000000000E+00  -0.1341502501E-02   0.1487801083E-02   0.3088287536E-03  -0.5235101872E-01
   0.1030760377E+01   0.3060207749E+00   0.9973595234E+00   0.7314176961E-02   0.1644223416E-02  -0.2346786304E+00   0.5192937114E-02   0.6781654632E-01  -0.5097066698E-03   0.1494987583E-02   0.4065376037E-03  -0.4127138334E-01
   0.0000000000E+00   0.0000000000E+00   0.1000000000E+01   0.7321759113E-02   0.1813050544E-02  -0.2050286659E+00   0.0000000000E+00   0.0000000000E+00   0.0000000000E+00   0.1498118971E-02   0.4397586110E-03  -0.3513332056E-01
           1           2
           2           3
           8           7
           7           6
           3           4
           5           6
           4           5
