 VARIABLES = X,Y,Z,AX,AY,AZ,DU1,DU2,DU3,DAX,DAY,DAZ
 ZONE, T="0.1000D+01" F=FEPOINT, I=    3 J=    2  ET=LINESEG
   0.0000000000E+00   0.0000000000E+00   0.0000000000E+00   0.0000000000E+00   0.0000000000E+00   0.0000000000E+00   0.0000000000E+00   0.0000000000E+00   0.0000000000E+00   0.0000000000E+00   0.0000000000E+00   0.0000000000E+00
   0.1000000000E+01   0.0000000000E+00   0.0000000000E+00   0.0000000000E+00   0.0000000000E+00   0.0000000000E+00   0.0000000000E+00   0.1562500000E-07   0.0000000000E+00   0.0000000000E+00   0.0000000000E+00   0.3125000000E-07
   0.2000000000E+01   0.0000000000E+00   0.0000000000E+00   0.0000000000E+00   0.0000000000E+00   0.0000000000E+00   0.0000000000E+00   0.6250000000E-07   0.0000000000E+00   0.0000000000E+00   0.0000000000E+00   0.6250000000E-07
           1           2
           2           3
 VARIABLES = X,Y,Z,AX,AY,AZ,DU1,DU2,DU3,DAX,DAY,DAZ
 ZONE, T="0.2000D+01" F=FEPOINT, I=    3 J=    2  ET=LINESEG
   0.0000000000E+00   0.0000000000E+00   0.0000000000E+00   0.0000000000E+00   0.0000000000E+00   0.0000000000E+00   0.0000000000E+00   0.0000000000E+00   0.0000000000E+00   0.0000000000E+00   0.0000000000E+00   0.0000000000E+00
   0.1000000000E+01   0.1562500000E-07   0.0000000000E+00   0.0000000000E+00   0.0000000000E+00   0.3125000000E-07  -0.4882812500E-15   0.3125000000E-07   0.0000000000E+00   0.0000000000E+00   0.0000000000E+00   0.6250000000E-07
   0.2000000000E+01   0.6250000000E-07   0.0000000000E+00   0.0000000000E+00   0.0000000000E+00   0.6250000000E-07  -0.4882812500E-14   0.1250000000E-06   0.0000000000E+00   0.0000000000E+00   0.0000000000E+00   0.1250000000E-06
           1           2
           2           3
 VARIABLES = X,Y,Z,AX,AY,AZ,DU1,DU2,DU3,DAX,DAY,DAZ
 ZONE, T="0.3000D+01" F=FEPOINT, I=    3 J=    2  ET=LINESEG
   0.0000000000E+00   0.0000000000E+00   0.0000000000E+00   0.0000000000E+00   0.0000000000E+00   0.0000000000E+00   0.0000000000E+00   0.0000000000E+00   0.0000000000E+00   0.0000000000E+00   0.0000000000E+00   0.0000000000E+00
   0.1000000000E+01   0.4687500000E-07   0.0000000000E+00   0.0000000000E+00   0.0000000000E+00   0.9375000000E-07  -0.1708984375E-14   0.4687500000E-07   0.0000000000E+00   0.0000000000E+00   0.0000000000E+00   0.9375000000E-07
   0.2000000000E+01   0.1875000000E-06   0.0000000000E+00   0.0000000000E+00   0.0000000000E+00   0.1875000000E-06  -0.1708984375E-13   0.1875000000E-06   0.0000000000E+00   0.0000000000E+00   0.0000000000E+00   0.1875000000E-06
           1           2
           2           3
