 VARIABLES = X,Y,Z,AX,AY,AZ,DU1,DU2,DU3,DAX,DAY,DAZ
 ZONE, T="0.1000D+01" F=FEPOINT, I=    3 J=    2  ET=LINESEG
   0.0000000000E+00   0.0000000000E+00   0.0000000000E+00   0.0000000000E+00   0.0000000000E+00   0.0000000000E+00   0.0000000000E+00   0.0000000000E+00   0.0000000000E+00   0.0000000000E+00   0.0000000000E+00   0.0000000000E+00
   0.1000000000E+01   0.0000000000E+00   0.0000000000E+00   0.0000000000E+00   0.0000000000E+00   0.0000000000E+00   0.4166666667E-07   0.2252679170E-06   0.1365790743E-06   0.2403846154E-07  -0.2083333333E-07   0.6770833333E-07
   0.2000000000E+01   0.0000000000E+00   0.0000000000E+00   0.0000000000E+00   0.0000000000E+00   0.0000000000E+00   0.8333333333E-07   0.3750100004E-06   0.2870470374E-06   0.2403846154E-07  -0.2777777778E-07   0.1041666667E-06
           1           2
           2           3
 VARIABLES = X,Y,Z,AX,AY,AZ,DU1,DU2,DU3,DAX,DAY,DAZ
 ZONE, T="0.2000D+01" F=FEPOINT, I=    3 J=    2  ET=LINESEG
   0.0000000000E+00   0.0000000000E+00   0.0000000000E+00   0.0000000000E+00   0.0000000000E+00   0.0000000000E+00   0.0000000000E+00   0.0000000000E+00   0.0000000000E+00   0.0000000000E+00   0.0000000000E+00   0.0000000000E+00
   0.1000000042E+01   0.2252679170E-06   0.1365790743E-06   0.2403846154E-07  -0.2083333333E-07   0.6770833333E-07   0.8333322610E-07   0.4505358652E-06   0.2731581522E-06   0.4807692458E-07  -0.4166666296E-07   0.1354166717E-06
   0.2000000083E+01   0.3750100004E-06   0.2870470374E-06   0.2403846154E-07  -0.2777777778E-07   0.1041666667E-06   0.1666664957E-06   0.7500200418E-06   0.5740940821E-06   0.4807692292E-07  -0.5555555208E-07   0.2083333415E-06
           1           2
           2           3
 VARIABLES = X,Y,Z,AX,AY,AZ,DU1,DU2,DU3,DAX,DAY,DAZ
 ZONE, T="0.3000D+01" F=FEPOINT, I=    3 J=    2  ET=LINESEG
   0.0000000000E+00   0.0000000000E+00   0.0000000000E+00   0.0000000000E+00   0.0000000000E+00   0.0000000000E+00   0.0000000000E+00   0.0000000000E+00   0.0000000000E+00   0.0000000000E+00   0.0000000000E+00   0.0000000000E+00
   0.1000000125E+01   0.6758037822E-06   0.4097372265E-06   0.7211538612E-07  -0.6249999630E-07   0.2031250051E-06   0.1249996247E-06   0.6758038604E-06   0.4097372355E-06   0.7211538988E-07  -0.6249998703E-07   0.2031250177E-06
   0.2000000250E+01   0.1125030042E-05   0.8611411196E-06   0.7211538446E-07  -0.8333332985E-07   0.3125000082E-06   0.2499994017E-06   0.1125030145E-05   0.8611411378E-06   0.7211538408E-07  -0.8333332115E-07   0.3125000287E-06
           1           2
           2           3
