 VARIABLES = X,Y,Z,AX,AY,AZ,DU1,DU2,DU3,DAX,DAY,DAZ
 ZONE, T="0.1000D+01" F=FEPOINT, I=    3 J=    2  ET=LINESEG
   0.0000000000E+00   0.0000000000E+00   0.0000000000E+00   0.0000000000E+00   0.0000000000E+00   0.0000000000E+00   0.0000000000E+00   0.0000000000E+00   0.0000000000E+00   0.0000000000E+00   0.0000000000E+00   0.0000000000E+00
   0.1000000000E+01   0.0000000000E+00   0.0000000000E+00   0.0000000000E+00   0.0000000000E+00   0.0000000000E+00   0.0000000000E+00   0.2096429170E-06   0.0000000000E+00   0.0000000000E+00   0.0000000000E+00   0.3645833333E-07
   0.2000000000E+01   0.0000000000E+00   0.0000000000E+00   0.0000000000E+00   0.0000000000E+00   0.0000000000E+00   0.0000000000E+00   0.3125100004E-06   0.0000000000E+00   0.0000000000E+00   0.0000000000E+00   0.4166666667E-07
           1           2
           2           3
 VARIABLES = X,Y,Z,AX,AY,AZ,DU1,DU2,DU3,DAX,DAY,DAZ
 ZONE, T="0.2000D+01" F=FEPOINT, I=    3 J=    2  ET=LINESEG
   0.0000000000E+00   0.0000000000E+00   0.0000000000E+00   0.0000000000E+00   0.0000000000E+00   0.0000000000E+00   0.0000000000E+00   0.0000000000E+00   0.0000000000E+00   0.0000000000E+00   0.0000000000E+00   0.0000000000E+00
   0.1000000000E+01   0.2096429170E-06   0.0000000000E+00   0.0000000000E+00   0.0000000000E+00   0.3645833333E-07  -0.7900231914E-13   0.4192858339E-06   0.0000000000E+00   0.0000000000E+00   0.0000000000E+00   0.7291666667E-07
   0.2000000000E+01   0.3125100004E-06   0.0000000000E+00   0.0000000000E+00   0.0000000000E+00   0.4166666667E-07  -0.1001655928E-12   0.6250200008E-06   0.0000000000E+00   0.0000000000E+00   0.0000000000E+00   0.8333333333E-07
           1           2
           2           3
 VARIABLES = X,Y,Z,AX,AY,AZ,DU1,DU2,DU3,DAX,DAY,DAZ
 ZONE, T="0.3000D+01" F=FEPOINT, I=    3 J=    2  ET=LINESEG
   0.0000000000E+00   0.0000000000E+00   0.0000000000E+00   0.0000000000E+00   0.0000000000E+00   0.0000000000E+00   0.0000000000E+00   0.0000000000E+00   0.0000000000E+00   0.0000000000E+00   0.0000000000E+00   0.0000000000E+00
   0.1000000000E+01   0.6289287509E-06   0.0000000000E+00   0.0000000000E+00   0.0000000000E+00   0.1093750000E-06  -0.2765081170E-12   0.6289287509E-06   0.0000000000E+00   0.0000000000E+00   0.0000000000E+00   0.1093750000E-06
   0.2000000000E+01   0.9375300012E-06   0.0000000000E+00   0.0000000000E+00   0.0000000000E+00   0.1250000000E-06  -0.3505795750E-12   0.9375300012E-06   0.0000000000E+00   0.0000000000E+00   0.0000000000E+00   0.1250000000E-06
           1           2
           2           3
