 VARIABLES = X,Y,Z,AX,AY,AZ,DU1,DU2,DU3,DAX,DAY,DAZ
 ZONE, T="0.1000D+01" F=FEPOINT, I=    3 J=    2  ET=LINESEG
   0.0000000000E+00   0.0000000000E+00   0.0000000000E+00   0.0000000000E+00   0.0000000000E+00   0.0000000000E+00   0.0000000000E+00   0.0000000000E+00   0.0000000000E+00   0.0000000000E+00   0.0000000000E+00   0.0000000000E+00
   0.5000000000E+00   0.7071000000E+00   0.5000000000E+00   0.0000000000E+00   0.0000000000E+00   0.0000000000E+00   0.1118296810E-06   0.1260365588E-06  -0.2067404457E-06  -0.3656540824E-07   0.6487329880E-07  -0.7103332054E-08
   0.1000000000E+01   0.1414200000E+01   0.1000000000E+01   0.0000000000E+00   0.0000000000E+00   0.0000000000E+00   0.1633110259E-06   0.2618937626E-06  -0.3670209116E-06  -0.5970464910E-07   0.9065277032E-07  -0.2042188086E-07
           1           2
           2           3
 VARIABLES = X,Y,Z,AX,AY,AZ,DU1,DU2,DU3,DAX,DAY,DAZ
 ZONE, T="0.2000D+01" F=FEPOINT, I=    3 J=    2  ET=LINESEG
   0.0000000000E+00   0.0000000000E+00   0.0000000000E+00   0.0000000000E+00   0.0000000000E+00   0.0000000000E+00   0.0000000000E+00   0.0000000000E+00   0.0000000000E+00   0.0000000000E+00   0.0000000000E+00   0.0000000000E+00
   0.5000001118E+00   0.7071001260E+00   0.4999997933E+00  -0.3656540824E-07   0.6487329880E-07  -0.7103332054E-08   0.2236593631E-06   0.2520729890E-06  -0.4134809253E-06  -0.7313079411E-07   0.1297465939E-06  -0.1420667831E-07
   0.1000000163E+01   0.1414200262E+01   0.9999996330E+00  -0.5970464910E-07   0.9065277032E-07  -0.2042188086E-07   0.3266220391E-06   0.5237873226E-06  -0.7340418657E-06  -0.1194092723E-06   0.1813055362E-06  -0.4084378163E-07
           1           2
           2           3
 VARIABLES = X,Y,Z,AX,AY,AZ,DU1,DU2,DU3,DAX,DAY,DAZ
 ZONE, T="0.3000D+01" F=FEPOINT, I=    3 J=    2  ET=LINESEG
   0.0000000000E+00   0.0000000000E+00   0.0000000000E+00   0.0000000000E+00   0.0000000000E+00   0.0000000000E+00   0.0000000000E+00   0.0000000000E+00   0.0000000000E+00   0.0000000000E+00   0.0000000000E+00   0.0000000000E+00
   0.5000003355E+00   0.7071003781E+00   0.4999993798E+00  -0.1096962023E-06   0.1946198927E-06  -0.2131001036E-07   0.3354890471E-06   0.3781092264E-06  -0.6202214556E-06  -0.1096961464E-06   0.1946198836E-06  -0.2131004585E-07
   0.1000000490E+01   0.1414200786E+01   0.9999988989E+00  -0.1791139214E-06   0.2719583065E-06  -0.6126566249E-07   0.4899330330E-06   0.7856805787E-06  -0.1101062884E-05  -0.1791138567E-06   0.2719582954E-06  -0.6126571227E-07
           1           2
           2           3
