 VARIABLES = X,Y,Z,AX,AY,AZ,DU1,DU2,DU3,DAX,DAY,DAZ
 ZONE, T="0.1000D+01" F=FEPOINT, I=    3 J=    2  ET=LINESEG
   0.0000000000E+00   0.0000000000E+00   0.0000000000E+00   0.0000000000E+00   0.0000000000E+00   0.0000000000E+00   0.0000000000E+00   0.0000000000E+00   0.0000000000E+00   0.0000000000E+00   0.0000000000E+00   0.0000000000E+00
   0.1000000000E+01   0.0000000000E+00   0.0000000000E+00   0.0000000000E+00   0.0000000000E+00   0.0000000000E+00   0.0000000000E+00   0.0000000000E+00   0.0000000000E+00   0.2403846154E-07   0.0000000000E+00   0.0000000000E+00
   0.2000000000E+01   0.0000000000E+00   0.0000000000E+00   0.0000000000E+00   0.0000000000E+00   0.0000000000E+00   0.0000000000E+00   0.0000000000E+00   0.0000000000E+00   0.4807692308E-07   0.0000000000E+00   0.0000000000E+00
           1           2
           2           3
 VARIABLES = X,Y,Z,AX,AY,AZ,DU1,DU2,DU3,DAX,DAY,DAZ
 ZONE, T="0.2000D+01" F=FEPOINT, I=    3 J=    2  ET=LINESEG
   0.0000000000E+00   0.0000000000E+00   0.0000000000E+00   0.0000000000E+00   0.0000000000E+00   0.0000000000E+00   0.0000000000E+00   0.0000000000E+00   0.0000000000E+00   0.0000000000E+00   0.0000000000E+00   0.0000000000E+00
   0.1000000000E+01   0.0000000000E+00   0.0000000000E+00   0.2403846154E-07   0.0000000000E+00   0.0000000000E+00   0.0000000000E+00   0.0000000000E+00   0.0000000000E+00   0.4807692308E-07   0.0000000000E+00   0.0000000000E+00
   0.2000000000E+01   0.0000000000E+00   0.0000000000E+00   0.4807692308E-07   0.0000000000E+00   0.0000000000E+00   0.0000000000E+00   0.0000000000E+00   0.0000000000E+00   0.9615384615E-07   0.0000000000E+00   0.0000000000E+00
           1           2
           2           3
 VARIABLES = X,Y,Z,AX,AY,AZ,DU1,DU2,DU3,DAX,DAY,DAZ
 ZONE, T="0.3000D+01" F=FEPOINT, I=    3 J=    2  ET=LINESEG
   0.0000000000E+00   0.0000000000E+00   0.0000000000E+00   0.0000000000E+00   0.0000000000E+00   0.0000000000E+00   0.0000000000E+00   0.0000000000E+00   0.0000000000E+00   0.0000000000E+00   0.0000000000E+00   0.0000000000E+00
   0.1000000000E+01   0.0000000000E+00   0.0000000000E+00   0.7211538462E-07   0.0000000000E+00   0.0000000000E+00   0.0000000000E+00   0.0000000000E+00   0.0000000000E+00   0.7211538462E-07   0.0000000000E+00   0.0000000000E+00
   0.2000000000E+01   0.0000000000E+00   0.0000000000E+00   0.1442307692E-06   0.0000000000E+00   0.0000000000E+00   0.0000000000E+00   0.0000000000E+00   0.0000000000E+00   0.1442307692E-06   0.0000000000E+00   0.0000000000E+00
           1           2
           2           3
