 VARIABLES = X,Y,Z,AX,AY,AZ,DU1,DU2,DU3,DAX,DAY,DAZ
 ZONE, T="0.1000D+01" F=FEPOINT, I=    8 J=    7  ET=LINESEG
   0.0000000000E+00   0.0000000000E+00   0.0000000000E+00   0.0000000000E+00   0.0000000000E+00   0.0000000000E+00   0.0000000000E+00   0.0000000000E+00   0.0000000000E+00  -0.2235076791E-03  -0.5010756319E-04  -0.5440064825E-02
   0.1000000000E+01   0.0000000000E+00   0.0000000000E+00   0.0000000000E+00   0.0000000000E+00   0.0000000000E+00   0.8333333333E-03   0.6828953714E-02   0.9243181958E-04  -0.2235076791E-03  -0.4458723843E-04  -0.6134509269E-02
   0.2000000000E+01   0.0000000000E+00   0.0000000000E+00   0.0000000000E+00   0.0000000000E+00   0.0000000000E+00   0.1666666667E-02   0.0000000000E+00   0.1738229897E-03  -0.2235076791E-03  -0.2802626416E-04  -0.7523398158E-02
   0.2000000000E+01   0.1000000000E+01   0.0000000000E+00   0.0000000000E+00   0.0000000000E+00   0.0000000000E+00   0.9884509269E-02   0.8333333333E-02  -0.7360433011E-05  -0.2290280038E-03  -0.1104064952E-04  -0.8912287047E-02
   0.2000000000E+01   0.1000000000E+01   0.1000000000E+01   0.0000000000E+00   0.0000000000E+00   0.0000000000E+00   0.9884509269E-02   0.8333333333E-02   0.7360433011E-05   0.2290280038E-03   0.1104064952E-04  -0.8912287047E-02
   0.2000000000E+01   0.0000000000E+00   0.1000000000E+01   0.0000000000E+00   0.0000000000E+00   0.0000000000E+00   0.1666666667E-02   0.0000000000E+00  -0.1738229897E-03   0.2235076791E-03   0.2802626416E-04  -0.7523398158E-02
   0.1000000000E+01   0.0000000000E+00   0.1000000000E+01   0.0000000000E+00   0.0000000000E+00   0.0000000000E+00   0.8333333333E-03   0.6828953714E-02  -0.9243181958E-04   0.2235076791E-03   0.4458723843E-04  -0.6134509269E-02
   0.0000000000E+00   0.0000000000E+00   0.1000000000E+01   0.0000000000E+00   0.0000000000E+00   0.0000000000E+00   0.0000000000E+00   0.0000000000E+00   0.0000000000E+00   0.2235076791E-03   0.5010756319E-04  -0.5440064825E-02
           1           2
           2           3
           8           7
           7           6
           3           4
           5           6
           4           5
 VARIABLES = X,Y,Z,AX,AY,AZ,DU1,DU2,DU3,DAX,DAY,DAZ
 ZONE, T="0.2000D+01" F=FEPOINT, I=    8 J=    7  ET=LINESEG
   0.0000000000E+00   0.0000000000E+00   0.0000000000E+00  -0.2235076791E-03  -0.5010756319E-04  -0.5440064825E-02   0.0000000000E+00   0.0000000000E+00   0.0000000000E+00  -0.4459987328E-03  -0.1007135442E-03  -0.1066380501E-01
   0.1000833333E+01   0.6828953714E-02   0.9243181958E-04  -0.2235076791E-03  -0.4458723843E-04  -0.6134509269E-02   0.1635715485E-02   0.1364825618E-01   0.1814971089E-03  -0.4459459344E-03  -0.8980010504E-04  -0.1204278122E-01
   0.2001666667E+01   0.0000000000E+00   0.1738229897E-03  -0.2235076791E-03  -0.2802626416E-04  -0.7523398158E-02   0.3216320548E-02   0.0000000000E+00   0.3472710572E-03  -0.4456791723E-03  -0.5705355427E-04  -0.1478979864E-01
   0.2009884509E+01   0.1008333333E+01  -0.7360433011E-05  -0.2290280038E-03  -0.1104064952E-04  -0.8912287047E-02   0.1939764086E-01   0.1711263753E-01  -0.1457926895E-04  -0.4576754114E-03  -0.2188703549E-04  -0.1759063817E-01
   0.2009884509E+01   0.1008333333E+01   0.1000007360E+01   0.2290280038E-03   0.1104064952E-04  -0.8912287047E-02   0.1939764086E-01   0.1711263753E-01   0.1457926895E-04   0.4576754114E-03   0.2188703549E-04  -0.1759063817E-01
   0.2001666667E+01   0.0000000000E+00   0.9998261770E+00   0.2235076791E-03   0.2802626416E-04  -0.7523398158E-02   0.3216320548E-02   0.0000000000E+00  -0.3472710572E-03   0.4456791723E-03   0.5705355427E-04  -0.1478979864E-01
   0.1000833333E+01   0.6828953714E-02   0.9999075682E+00   0.2235076791E-03   0.4458723843E-04  -0.6134509269E-02   0.1635715485E-02   0.1364825618E-01  -0.1814971089E-03   0.4459459344E-03   0.8980010504E-04  -0.1204278122E-01
   0.0000000000E+00   0.0000000000E+00   0.1000000000E+01   0.2235076791E-03   0.5010756319E-04  -0.5440064825E-02   0.0000000000E+00   0.0000000000E+00   0.0000000000E+00   0.4459987328E-03   0.1007135442E-03  -0.1066380501E-01
           1           2
           2           3
           8           7
           7           6
           3           4
           5           6
           4           5
 VARIABLES = X,Y,Z,AX,AY,AZ,DU1,DU2,DU3,DAX,DAY,DAZ
 ZONE, T="0.3000D+01" F=FEPOINT, I=    8 J=    7  ET=LINESEG
   0.0000000000E+00   0.0000000000E+00   0.0000000000E+00  -0.6695064119E-03  -0.1508211074E-03  -0.1610386983E-01   0.0000000000E+00   0.0000000000E+00   0.0000000000E+00  -0.6665957375E-03  -0.1522664939E-03  -0.1555805086E-01
   0.1002469049E+01   0.2047720990E-01   0.2739289285E-03  -0.6694536135E-03  -0.1343873435E-03  -0.1817729049E-01   0.2391073999E-02   0.2045288801E-01   0.2657211434E-03  -0.6664160934E-03  -0.1361496413E-03  -0.1760658759E-01
   0.2004882987E+01   0.0000000000E+00   0.5210940468E-03  -0.6691868514E-03  -0.8507981843E-04  -0.2231319680E-01   0.4595732017E-02   0.0000000000E+00   0.5205006973E-03  -0.6655296247E-03  -0.8778837550E-04  -0.2166447806E-01
   0.2029282150E+01   0.1025445971E+01  -0.2193970196E-04  -0.6867034152E-03  -0.3292768501E-04  -0.2650292521E-01   0.2835685045E-01   0.2669385542E-01  -0.2158362048E-04  -0.6856971174E-03  -0.3243312727E-04  -0.2591321448E-01
   0.2029282150E+01   0.1025445971E+01   0.1000021940E+01   0.6867034152E-03   0.3292768501E-04  -0.2650292521E-01   0.2835685045E-01   0.2669385542E-01   0.2158362048E-04   0.6856971174E-03   0.3243312727E-04  -0.2591321448E-01
   0.2004882987E+01   0.0000000000E+00   0.9994789060E+00   0.6691868514E-03   0.8507981843E-04  -0.2231319680E-01   0.4595732017E-02   0.0000000000E+00  -0.5205006973E-03   0.6655296247E-03   0.8778837550E-04  -0.2166447806E-01
   0.1002469049E+01   0.2047720990E-01   0.9997260711E+00   0.6694536135E-03   0.1343873435E-03  -0.1817729049E-01   0.2391073999E-02   0.2045288801E-01  -0.2657211434E-03   0.6664160934E-03   0.1361496413E-03  -0.1760658759E-01
   0.0000000000E+00   0.0000000000E+00   0.1000000000E+01   0.6695064119E-03   0.1508211074E-03  -0.1610386983E-01   0.0000000000E+00   0.0000000000E+00   0.0000000000E+00   0.6665957375E-03   0.1522664939E-03  -0.1555805086E-01
           1           2
           2           3
           8           7
           7           6
           3           4
           5           6
           4           5
 VARIABLES = X,Y,Z,AX,AY,AZ,DU1,DU2,DU3,DAX,DAY,DAZ
 ZONE, T="0.4000D+01" F=FEPOINT, I=    8 J=    7  ET=LINESEG
   0.0000000000E+00   0.0000000000E+00   0.0000000000E+00  -0.1336102149E-02  -0.3030876012E-03  -0.3166192069E-01   0.0000000000E+00   0.0000000000E+00   0.0000000000E+00  -0.8839036351E-03  -0.2054565571E-03  -0.2000171161E-01
   0.1004860123E+01   0.4093009790E-01   0.5396500718E-03  -0.1335869707E-02  -0.2705369848E-03  -0.3578387808E-01   0.3082714107E-02   0.2723787688E-01   0.3439402811E-03  -0.8835066118E-03  -0.1843890871E-03  -0.2269943856E-01
   0.2009478719E+01   0.0000000000E+00   0.1041594744E-02  -0.1334716476E-02  -0.1728681939E-03  -0.4397767486E-01   0.5758600236E-02   0.0000000000E+00   0.6941047241E-03  -0.8816139514E-03  -0.1211913155E-03  -0.2800262049E-01
   0.2057639001E+01   0.1052139826E+01  -0.4352332244E-04  -0.1372400533E-02  -0.6536081228E-04  -0.5241613969E-01   0.3657751988E-01   0.3761513512E-01  -0.2829749569E-04  -0.9127766403E-03  -0.4256130949E-04  -0.3374877051E-01
   0.2057639001E+01   0.1052139826E+01   0.1000043523E+01   0.1372400533E-02   0.6536081228E-04  -0.5241613969E-01   0.3657751988E-01   0.3761513512E-01   0.2829749569E-04   0.9127766403E-03   0.4256130949E-04  -0.3374877051E-01
   0.2009478719E+01   0.0000000000E+00   0.9989584053E+00   0.1334716476E-02   0.1728681939E-03  -0.4397767486E-01   0.5758600236E-02   0.0000000000E+00  -0.6941047241E-03   0.8816139514E-03   0.1211913155E-03  -0.2800262049E-01
   0.1004860123E+01   0.4093009790E-01   0.9994603499E+00   0.1335869707E-02   0.2705369848E-03  -0.3578387808E-01   0.3082714107E-02   0.2723787688E-01  -0.3439402811E-03   0.8835066118E-03   0.1843890871E-03  -0.2269943856E-01
   0.0000000000E+00   0.0000000000E+00   0.1000000000E+01   0.1336102149E-02   0.3030876012E-03  -0.3166192069E-01   0.0000000000E+00   0.0000000000E+00   0.0000000000E+00   0.8839036351E-03   0.2054565571E-03  -0.2000171161E-01
           1           2
           2           3
           8           7
           7           6
           3           4
           5           6
           4           5
 VARIABLES = X,Y,Z,AX,AY,AZ,DU1,DU2,DU3,DAX,DAY,DAZ
 ZONE, T="0.5000D+01" F=FEPOINT, I=    8 J=    7  ET=LINESEG
   0.0000000000E+00   0.0000000000E+00   0.0000000000E+00  -0.2220005784E-02  -0.5085441583E-03  -0.5166363230E-01   0.0000000000E+00   0.0000000000E+00   0.0000000000E+00  -0.1095636994E-02  -0.2612978224E-03  -0.2386217715E-01
   0.1007942837E+01   0.6816797478E-01   0.8835903529E-03  -0.2219376319E-02  -0.4549260719E-03  -0.5848331664E-01   0.3692957865E-02   0.3399842226E-01   0.4155457537E-03  -0.1094921153E-02  -0.2355975846E-03  -0.2718255749E-01
   0.2015237319E+01   0.0000000000E+00   0.1735699468E-02  -0.2216330427E-02  -0.2940595095E-03  -0.7198029535E-01   0.6668717949E-02   0.0000000000E+00   0.8693084865E-03  -0.1091672506E-02  -0.1585647952E-03  -0.3364394778E-01
   0.2094216520E+01   0.1089754961E+01  -0.7182081814E-04  -0.2285177173E-02  -0.1079221218E-03  -0.8616491020E-01   0.4386868975E-01   0.5071665501E-01  -0.3464230807E-04  -0.1138489117E-02  -0.5213929581E-04  -0.4095040410E-01
   0.2094216520E+01   0.1089754961E+01   0.1000071821E+01   0.2285177173E-02   0.1079221218E-03  -0.8616491020E-01   0.4386868975E-01   0.5071665501E-01   0.3464230807E-04   0.1138489117E-02   0.5213929581E-04  -0.4095040410E-01
   0.2015237319E+01   0.0000000000E+00   0.9982643005E+00   0.2216330427E-02   0.2940595095E-03  -0.7198029535E-01   0.6668717949E-02   0.0000000000E+00  -0.8693084865E-03   0.1091672506E-02   0.1585647952E-03  -0.3364394778E-01
   0.1007942837E+01   0.6816797478E-01   0.9991164096E+00   0.2219376319E-02   0.4549260719E-03  -0.5848331664E-01   0.3692957865E-02   0.3399842226E-01  -0.4155457537E-03   0.1094921153E-02   0.2355975846E-03  -0.2718255749E-01
   0.0000000000E+00   0.0000000000E+00   0.1000000000E+01   0.2220005784E-02   0.5085441583E-03  -0.5166363230E-01   0.0000000000E+00   0.0000000000E+00   0.0000000000E+00   0.1095636994E-02   0.2612978224E-03  -0.2386217715E-01
           1           2
           2           3
           8           7
           7           6
           3           4
           5           6
           4           5
 VARIABLES = X,Y,Z,AX,AY,AZ,DU1,DU2,DU3,DAX,DAY,DAZ
 ZONE, T="0.6000D+01" F=FEPOINT, I=    8 J=    7  ET=LINESEG
   0.0000000000E+00   0.0000000000E+00   0.0000000000E+00  -0.3315642778E-02  -0.7698419807E-03  -0.7552580945E-01   0.0000000000E+00   0.0000000000E+00   0.0000000000E+00  -0.1297906309E-02  -0.3211536867E-03  -0.2699149614E-01
   0.1011635795E+01   0.1021663970E+00   0.1299136107E-02  -0.3314297471E-02  -0.6905236565E-03  -0.8566587413E-01   0.4202119055E-02   0.4072998697E-01   0.4808775429E-03  -0.1296766215E-02  -0.2912066843E-03  -0.3090033320E-01
   0.2021906037E+01   0.0000000000E+00   0.2605007955E-02  -0.3308002933E-02  -0.4526243047E-03  -0.1056242431E+00   0.7303899771E-02   0.0000000000E+00   0.1048101503E-02  -0.1291939077E-02  -0.2015802826E-03  -0.3840608259E-01
   0.2138085210E+01   0.1140471616E+01  -0.1064631262E-03  -0.3423666290E-02  -0.1600614176E-03  -0.1271153143E+00   0.5002499480E-01   0.6735417648E-01  -0.4054010196E-04  -0.1362247790E-02  -0.6101971979E-04  -0.4734677204E-01
   0.2138085210E+01   0.1140471616E+01   0.1000106463E+01   0.3423666290E-02   0.1600614176E-03  -0.1271153143E+00   0.5002499480E-01   0.6735417648E-01   0.4054010196E-04   0.1362247790E-02   0.6101971979E-04  -0.4734677204E-01
   0.2021906037E+01   0.0000000000E+00   0.9973949920E+00   0.3308002933E-02   0.4526243047E-03  -0.1056242431E+00   0.7303899771E-02   0.0000000000E+00  -0.1048101503E-02   0.1291939077E-02   0.2015802826E-03  -0.3840608259E-01
   0.1011635795E+01   0.1021663970E+00   0.9987008639E+00   0.3314297471E-02   0.6905236565E-03  -0.8566587413E-01   0.4202119055E-02   0.4072998697E-01  -0.4808775429E-03   0.1296766215E-02   0.2912066843E-03  -0.3090033320E-01
   0.0000000000E+00   0.0000000000E+00   0.1000000000E+01   0.3315642778E-02   0.7698419807E-03  -0.7552580945E-01   0.0000000000E+00   0.0000000000E+00   0.0000000000E+00   0.1297906309E-02   0.3211536867E-03  -0.2699149614E-01
           1           2
           2           3
           8           7
           7           6
           3           4
           5           6
           4           5
 VARIABLES = X,Y,Z,AX,AY,AZ,DU1,DU2,DU3,DAX,DAY,DAZ
 ZONE, T="0.7000D+01" F=FEPOINT, I=    8 J=    7  ET=LINESEG
   0.0000000000E+00   0.0000000000E+00   0.0000000000E+00  -0.4613549087E-02  -0.1090995667E-02  -0.1025173056E+00   0.0000000000E+00   0.0000000000E+00   0.0000000000E+00  -0.1483715764E-02  -0.3865161534E-03  -0.2922171510E-01
   0.1015837914E+01   0.1428963840E+00   0.1780013650E-02  -0.4611063686E-02  -0.9817303408E-03  -0.1165662073E+00   0.4585877301E-02   0.4742825590E-01   0.5418244655E-03  -0.1482052301E-02  -0.3527796734E-03  -0.3367445500E-01
   0.2029209937E+01   0.0000000000E+00   0.3653109457E-02  -0.4599942010E-02  -0.6542045873E-03  -0.1440303257E+00   0.7661054014E-02   0.0000000000E+00   0.1232922783E-02  -0.1475666549E-02  -0.2520512676E-03  -0.4207534468E-01
   0.2188110205E+01   0.1207825793E+01  -0.1470032282E-03  -0.4785914080E-02  -0.2210811374E-03  -0.1744620863E+00   0.5480792666E-01   0.8982164804E-01  -0.4592077396E-04  -0.1583221036E-02  -0.6904530181E-04  -0.5272806725E-01
   0.2188110205E+01   0.1207825793E+01   0.1000147003E+01   0.4785914080E-02   0.2210811374E-03  -0.1744620863E+00   0.5480792666E-01   0.8982164804E-01   0.4592077396E-04   0.1583221036E-02   0.6904530181E-04  -0.5272806725E-01
   0.2029209937E+01   0.0000000000E+00   0.9963468905E+00   0.4599942010E-02   0.6542045873E-03  -0.1440303257E+00   0.7661054014E-02   0.0000000000E+00  -0.1232922783E-02   0.1475666549E-02   0.2520512676E-03  -0.4207534468E-01
   0.1015837914E+01   0.1428963840E+00   0.9982199864E+00   0.4611063686E-02   0.9817303408E-03  -0.1165662073E+00   0.4585877301E-02   0.4742825590E-01  -0.5418244655E-03   0.1482052301E-02   0.3527796734E-03  -0.3367445500E-01
   0.0000000000E+00   0.0000000000E+00   0.1000000000E+01   0.4613549087E-02   0.1090995667E-02  -0.1025173056E+00   0.0000000000E+00   0.0000000000E+00   0.0000000000E+00   0.1483715764E-02   0.3865161534E-03  -0.2922171510E-01
           1           2
           2           3
           8           7
           7           6
           3           4
           5           6
           4           5
 VARIABLES = X,Y,Z,AX,AY,AZ,DU1,DU2,DU3,DAX,DAY,DAZ
 ZONE, T="0.8000D+01" F=FEPOINT, I=    8 J=    7  ET=LINESEG
   0.0000000000E+00   0.0000000000E+00   0.0000000000E+00  -0.6097264851E-02  -0.1477511821E-02  -0.1317390207E+00   0.0000000000E+00   0.0000000000E+00   0.0000000000E+00  -0.1639538907E-02  -0.4578770974E-03  -0.3035746929E-01
   0.1020423791E+01   0.1903246399E+00   0.2321838115E-02  -0.6093115987E-02  -0.1334510014E-02  -0.1502406623E+00   0.4809205020E-02   0.5408867342E-01   0.6025803091E-03  -0.1637278482E-02  -0.4208813402E-03  -0.3529448210E-01
   0.2036870991E+01   0.0000000000E+00   0.4886032240E-02  -0.6075608558E-02  -0.9062558549E-03  -0.1861056704E+00   0.7763133773E-02   0.0000000000E+00   0.1424446441E-02  -0.1629741556E-02  -0.3107877185E-03  -0.4439173132E-01
   0.2242918132E+01   0.1297647441E+01  -0.1929240021E-03  -0.6369135116E-02  -0.2901264392E-03  -0.2271901536E+00   0.5789605282E-01   0.1222820784E+00  -0.5073323052E-04  -0.1800195296E-02  -0.7606221749E-04  -0.5681989162E-01
   0.2242918132E+01   0.1297647441E+01   0.1000192924E+01   0.6369135116E-02   0.2901264392E-03  -0.2271901536E+00   0.5789605282E-01   0.1222820784E+00   0.5073323052E-04   0.1800195296E-02   0.7606221749E-04  -0.5681989162E-01
   0.2036870991E+01   0.0000000000E+00   0.9951139678E+00   0.6075608558E-02   0.9062558549E-03  -0.1861056704E+00   0.7763133773E-02   0.0000000000E+00  -0.1424446441E-02   0.1629741556E-02   0.3107877185E-03  -0.4439173132E-01
   0.1020423791E+01   0.1903246399E+00   0.9976781619E+00   0.6093115987E-02   0.1334510014E-02  -0.1502406623E+00   0.4809205020E-02   0.5408867342E-01  -0.6025803091E-03   0.1637278482E-02   0.4208813402E-03  -0.3529448210E-01
   0.0000000000E+00   0.0000000000E+00   0.1000000000E+01   0.6097264851E-02   0.1477511821E-02  -0.1317390207E+00   0.0000000000E+00   0.0000000000E+00   0.0000000000E+00   0.1639538907E-02   0.4578770974E-03  -0.3035746929E-01
           1           2
           2           3
           8           7
           7           6
           3           4
           5           6
           4           5
 VARIABLES = X,Y,Z,AX,AY,AZ,DU1,DU2,DU3,DAX,DAY,DAZ
 ZONE, T="0.9000D+01" F=FEPOINT, I=    8 J=    7  ET=LINESEG
   0.0000000000E+00   0.0000000000E+00   0.0000000000E+00  -0.7736803758E-02  -0.1935388918E-02  -0.1620964900E+00   0.0000000000E+00   0.0000000000E+00   0.0000000000E+00  -0.1736843221E-02  -0.5301509902E-03  -0.3016108919E-01
   0.1025232996E+01   0.2444133133E+00   0.2924418424E-02  -0.7730394470E-02  -0.1755391354E-02  -0.1855351444E+00   0.4813043872E-02   0.6070482797E-01   0.6696472734E-03  -0.1733977230E-02  -0.4905030305E-03  -0.3549941957E-01
   0.2044634125E+01   0.0000000000E+00   0.6310478681E-02  -0.7705350115E-02  -0.1217043573E-02  -0.2304974017E+00   0.7669621919E-02   0.0000000000E+00   0.1611593967E-02  -0.1726267059E-02  -0.3730129084E-03  -0.4502052596E-01
   0.2300814184E+01   0.1419929519E+01  -0.2436572327E-03  -0.8169330412E-02  -0.3661886567E-03  -0.2840100452E+00   0.5873434073E-01   0.1730916587E+00  -0.5495333848E-04  -0.2011340194E-02  -0.8193371313E-04  -0.5922692023E-01
   0.2300814184E+01   0.1419929519E+01   0.1000243657E+01   0.8169330412E-02   0.3661886567E-03  -0.2840100452E+00   0.5873434073E-01   0.1730916587E+00   0.5495333848E-04   0.2011340194E-02   0.8193371313E-04  -0.5922692023E-01
   0.2044634125E+01   0.0000000000E+00   0.9936895213E+00   0.7705350115E-02   0.1217043573E-02  -0.2304974017E+00   0.7669621919E-02   0.0000000000E+00  -0.1611593967E-02   0.1726267059E-02   0.3730129084E-03  -0.4502052596E-01
   0.1025232996E+01   0.2444133133E+00   0.9970755816E+00   0.7730394470E-02   0.1755391354E-02  -0.1855351444E+00   0.4813043872E-02   0.6070482797E-01  -0.6696472734E-03   0.1733977230E-02   0.4905030305E-03  -0.3549941957E-01
   0.0000000000E+00   0.0000000000E+00   0.1000000000E+01   0.7736803758E-02   0.1935388918E-02  -0.1620964900E+00   0.0000000000E+00   0.0000000000E+00   0.0000000000E+00   0.1736843221E-02   0.5301509902E-03  -0.3016108919E-01
           1           2
           2           3
           8           7
           7           6
           3           4
           5           6
           4           5
 VARIABLES = X,Y,Z,AX,AY,AZ,DU1,DU2,DU3,DAX,DAY,DAZ
 ZONE, T="0.1000D+02" F=FEPOINT, I=    8 J=    7  ET=LINESEG
   0.0000000000E+00   0.0000000000E+00   0.0000000000E+00  -0.9473646979E-02  -0.2465539908E-02  -0.1922575792E+00   0.0000000000E+00   0.0000000000E+00   0.0000000000E+00  -0.1708939315E-02  -0.5733979326E-03  -0.2831954674E-01
   0.1030046040E+01   0.3051181413E+00   0.3594065698E-02  -0.9464371700E-02  -0.2245894385E-02  -0.2210345640E+00   0.4485329607E-02   0.6726389730E-01   0.7444140534E-03  -0.1705599334E-02  -0.5318244785E-03  -0.3393812657E-01
   0.2052303747E+01   0.0000000000E+00   0.7922072649E-02  -0.9431617174E-02  -0.1590056482E-02  -0.2755179277E+00   0.7494682960E-02   0.0000000000E+00   0.1726872909E-02  -0.1699492821E-02  -0.4092202972E-03  -0.4349354712E-01
   0.2359548525E+01   0.1593021178E+01  -0.2986105711E-03  -0.1018067061E-01  -0.4481223698E-03  -0.3432369654E+00   0.5599641199E-01   0.2616278345E+00  -0.5855624339E-04  -0.2213826447E-02  -0.8649229289E-04  -0.5929397095E-01
   0.2359548525E+01   0.1593021178E+01   0.1000298611E+01   0.1018067061E-01   0.4481223698E-03  -0.3432369654E+00   0.5599641199E-01   0.2616278345E+00   0.5855624339E-04   0.2213826447E-02   0.8649229289E-04  -0.5929397095E-01
   0.2052303747E+01   0.0000000000E+00   0.9920779274E+00   0.9431617174E-02   0.1590056482E-02  -0.2755179277E+00   0.7494682960E-02   0.0000000000E+00  -0.1726872909E-02   0.1699492821E-02   0.4092202972E-03  -0.4349354712E-01
   0.1030046040E+01   0.3051181413E+00   0.9964059343E+00   0.9464371700E-02   0.2245894385E-02  -0.2210345640E+00   0.4485329607E-02   0.6726389730E-01  -0.7444140534E-03   0.1705599334E-02   0.5318244785E-03  -0.3393812657E-01
   0.0000000000E+00   0.0000000000E+00   0.1000000000E+01   0.9473646979E-02   0.2465539908E-02  -0.1922575792E+00   0.0000000000E+00   0.0000000000E+00   0.0000000000E+00   0.1708939315E-02   0.5733979326E-03  -0.2831954674E-01
           1           2
           2           3
           8           7
           7           6
           3           4
           5           6
           4           5
