 VARIABLES = X,Y,Z,AX,AY,AZ,DU1,DU2,DU3,DAX,DAY,DAZ
 ZONE, T="0.1000D+01" F=FEPOINT, I=    3 J=    2  ET=LINESEG
   0.0000000000E+00   0.0000000000E+00   0.0000000000E+00   0.0000000000E+00   0.0000000000E+00   0.0000000000E+00   0.0000000000E+00   0.0000000000E+00   0.0000000000E+00   0.0000000000E+00   0.0000000000E+00   0.0000000000E+00
   0.1000000000E+01   0.0000000000E+00   0.0000000000E+00   0.0000000000E+00   0.0000000000E+00   0.0000000000E+00   0.0000000000E+00   0.1510466669E-06   0.0000000000E+00   0.0000000000E+00   0.0000000000E+00   0.4687500000E-07
   0.2000000000E+01   0.0000000000E+00   0.0000000000E+00   0.0000000000E+00   0.0000000000E+00   0.0000000000E+00   0.0000000000E+00   0.3333433337E-06   0.0000000000E+00   0.0000000000E+00   0.0000000000E+00   0.6250000000E-07
           1           2
           2           3
 VARIABLES = X,Y,Z,AX,AY,AZ,DU1,DU2,DU3,DAX,DAY,DAZ
 ZONE, T="0.2000D+01" F=FEPOINT, I=    3 J=    2  ET=LINESEG
   0.0000000000E+00   0.0000000000E+00   0.0000000000E+00   0.0000000000E+00   0.0000000000E+00   0.0000000000E+00   0.0000000000E+00   0.0000000000E+00   0.0000000000E+00   0.0000000000E+00   0.0000000000E+00   0.0000000000E+00
   0.1000000000E+01   0.1510466669E-06   0.0000000000E+00   0.0000000000E+00   0.0000000000E+00   0.4687500000E-07  -0.3304296890E-13   0.3020933337E-06   0.0000000000E+00   0.0000000000E+00   0.0000000000E+00   0.9375000000E-07
   0.2000000000E+01   0.3333433337E-06   0.0000000000E+00   0.0000000000E+00   0.0000000000E+00   0.6250000000E-07  -0.8431572950E-13   0.6666866675E-06   0.0000000000E+00   0.0000000000E+00   0.0000000000E+00   0.1250000000E-06
           1           2
           2           3
 VARIABLES = X,Y,Z,AX,AY,AZ,DU1,DU2,DU3,DAX,DAY,DAZ
 ZONE, T="0.3000D+01" F=FEPOINT, I=    3 J=    2  ET=LINESEG
   0.0000000000E+00   0.0000000000E+00   0.0000000000E+00   0.0000000000E+00   0.0000000000E+00   0.0000000000E+00   0.0000000000E+00   0.0000000000E+00   0.0000000000E+00   0.0000000000E+00   0.0000000000E+00   0.0000000000E+00
   0.1000000000E+01   0.4531400006E-06   0.0000000000E+00   0.0000000000E+00   0.0000000000E+00   0.1406250000E-06  -0.1156503912E-12   0.4531400006E-06   0.0000000000E+00   0.0000000000E+00   0.0000000000E+00   0.1406250000E-06
   0.2000000000E+01   0.1000030001E-05   0.0000000000E+00   0.0000000000E+00   0.0000000000E+00   0.1875000000E-06  -0.2951050533E-12   0.1000030001E-05   0.0000000000E+00   0.0000000000E+00   0.0000000000E+00   0.1875000000E-06
           1           2
           2           3
