 VARIABLES = X,Y,Z,DU1,DU2,DU3,U1,U2,U3,S11,S22,S33,S12,S13,S23
 ZONE, T="0.1000D+01" F=FEPOINT, I= 4104 J= 3075 ET=BRICK
   0.7464960402E+00   0.9025656600E+00   0.4356256514E-03   0.6912459823E-01  -0.2519941099E-01   0.4356256514E-03   0.0000000000E+00   0.0000000000E+00   0.0000000000E+00   0.1556396494E+01  -0.7674100297E-01  -0.3054380126E-02  -0.3299366135E+00  -0.7233227169E-01   0.4691597675E-01
   0.5507228234E+00   0.1003837229E+01   0.2276630371E-02   0.6289421139E-01  -0.2971577149E-01   0.2276630371E-02   0.0000000000E+00   0.0000000000E+00   0.0000000000E+00   0.2056958742E+01   0.8259308365E-01   0.3637292296E-01  -0.2584335334E+00  -0.8056943382E-01   0.2592536903E-02
   0.4920078251E+00   0.8751672357E+00   0.2789333427E-02   0.6586608606E-01  -0.2948917433E-01   0.2789333427E-02   0.0000000000E+00   0.0000000000E+00   0.0000000000E+00   0.2200826014E+01   0.2741705475E+00   0.1964827681E-01  -0.8009353676E+00  -0.1613278519E+00   0.8116632756E-01
   0.6621782416E+00   0.7811398392E+00   0.5791636532E-03   0.7223834959E-01  -0.2630729575E-01   0.5791636532E-03   0.0000000000E+00   0.0000000000E+00   0.0000000000E+00   0.1258268338E+01   0.3304459399E+00   0.9961853804E-02  -0.6451594175E+00  -0.1513557593E+00   0.1032096645E+00
   0.7474357018E+00   0.9020587096E+00   0.1989495613E+00   0.7006425982E-01  -0.2570636145E-01  -0.1050441668E-02   0.0000000000E+00   0.0000000000E+00   0.0000000000E+00   0.1440921187E+01   0.6781773333E-01  -0.7689330513E-02  -0.3885865082E+00  -0.6035106581E-01   0.4127410751E-01
   0.5518095681E+00   0.1003966147E+01   0.2000762183E+00   0.6398095609E-01  -0.2958685296E-01   0.7621531007E-04   0.0000000000E+00   0.0000000000E+00   0.0000000000E+00   0.2093046449E+01   0.2195150187E+00   0.5518234426E-01  -0.3904846935E+00  -0.6342501014E-01   0.1545346805E-01
   0.4930879816E+00   0.8753461044E+00   0.2004239826E+00   0.6694624265E-01  -0.2931030559E-01   0.4239796109E-03   0.0000000000E+00   0.0000000000E+00   0.0000000000E+00   0.2266858122E+01   0.3886424136E+00   0.8534214217E-02  -0.9138173363E+00  -0.1352362960E+00   0.7289012291E-01
   0.6631286460E+00   0.7806444534E+00   0.1990399107E+00   0.7318875404E-01  -0.2680268161E-01  -0.9600922773E-03   0.0000000000E+00   0.0000000000E+00   0.0000000000E+00   0.1188503283E+01   0.4349888396E+00   0.5511013214E-02  -0.6920158531E+00  -0.1258444006E+00   0.9202748765E-01
   0.3310732476E+00   0.1064579517E+01   0.3821741922E-02   0.5696903958E-01  -0.3356799316E-01   0.3821741922E-02   0.0000000000E+00   0.0000000000E+00   0.0000000000E+00   0.2539189277E+01   0.2071747481E+00   0.7014945947E-01  -0.1589720758E+00  -0.6930012567E-01  -0.4547199692E-01
   0.3050038787E+00   0.9372139781E+00   0.4607185469E-02   0.5906614373E-01  -0.3207162890E-01   0.4607185469E-02   0.0000000000E+00   0.0000000000E+00   0.0000000000E+00   0.3120444016E+01   0.1213388369E+00   0.5408738223E-01  -0.6197449524E+00  -0.1288920021E+00   0.3076228416E-01
   0.3318818736E+00   0.1065388810E+01   0.2010117368E+00   0.5777766557E-01  -0.3275869993E-01   0.1011733808E-02   0.0000000000E+00   0.0000000000E+00   0.0000000000E+00   0.2743817308E+01   0.2818479729E+00   0.1065605170E+00  -0.2930138724E+00  -0.5354155368E-01  -0.7523229339E-02
   0.3058242828E+00   0.9381017107E+00   0.2015327097E+00   0.5988654777E-01  -0.3118389629E-01   0.1532706705E-02   0.0000000000E+00   0.0000000000E+00   0.0000000000E+00   0.3356334831E+01   0.2001022980E+00   0.6814657583E-01  -0.7397653222E+00  -0.1008461592E+00   0.3407080003E-01
   0.1088833244E+00   0.1094607106E+01   0.4523637940E-02   0.5138359529E-01  -0.3554011439E-01   0.4523637940E-02   0.0000000000E+00   0.0000000000E+00   0.0000000000E+00   0.2740266659E+01   0.2604545685E+00   0.7344867051E-01  -0.4247233992E-01  -0.1487504690E-01  -0.7122354986E-01
   0.1119710443E+00   0.9648339430E+00   0.5522224335E-02   0.5217558268E-01  -0.3337672598E-01   0.5522224335E-02   0.0000000000E+00   0.0000000000E+00   0.0000000000E+00   0.3671199339E+01   0.1411936100E-01   0.9018617504E-01  -0.1561952432E+00  -0.3342730548E-01  -0.1420900639E-01
   0.1090664702E+00   0.1095789588E+01   0.2014463603E+00   0.5156674114E-01  -0.3435763170E-01   0.1446357315E-02   0.0000000000E+00   0.0000000000E+00   0.0000000000E+00   0.3055638740E+01   0.2918476937E+00   0.1196342701E+00  -0.7537465125E-01  -0.1165618159E-01  -0.1982557252E-01
   0.1121862605E+00   0.9661193883E+00   0.2020743762E+00   0.5239079892E-01  -0.3209128067E-01   0.2074373205E-02   0.0000000000E+00   0.0000000000E+00   0.0000000000E+00   0.4013030934E+01   0.4543938364E-01   0.1154820524E+00  -0.1890068781E+00  -0.2595117934E-01   0.1244431935E-01
  -0.1187622931E+00   0.1093161064E+01   0.4210992090E-02   0.4593667988E-01  -0.3495435581E-01   0.4210992090E-02   0.0000000000E+00   0.0000000000E+00   0.0000000000E+00   0.2648881383E+01   0.2358674448E+00   0.7646694800E-01   0.6911253221E-01   0.4133768611E-01  -0.6424686557E-01
  -0.8571637242E-01   0.9583826869E+00   0.5259149935E-02   0.4512811658E-01  -0.3302023709E-01   0.5259149935E-02   0.0000000000E+00   0.0000000000E+00   0.0000000000E+00   0.3513151621E+01   0.4354656825E-01   0.7245233371E-01   0.4047469688E+00   0.8495503918E-01   0.7916212138E-02
  -0.1192943802E+00   0.1094193304E+01   0.2012493493E+00   0.4540459283E-01  -0.3392211645E-01   0.1249346347E-02   0.0000000000E+00   0.0000000000E+00   0.0000000000E+00   0.2920748237E+01   0.2871069396E+00   0.1198248819E+00   0.1610863988E+00   0.3468520174E-01  -0.1866719517E-01
  -0.8621431127E-01   0.9595470320E+00   0.2019288764E+00   0.4463017773E-01  -0.3185589199E-01   0.1928873417E-02   0.0000000000E+00   0.0000000000E+00   0.0000000000E+00   0.3826685448E+01   0.9969041786E-01   0.9399334517E-01   0.4918929394E+00   0.6206040142E-01   0.2068370727E-01
  -0.3505823292E+00   0.1060494548E+01   0.2939052948E-02   0.4028245984E-01  -0.3190850241E-01   0.2939052948E-02   0.0000000000E+00   0.0000000000E+00   0.0000000000E+00   0.2278194006E+01   0.1270017983E+00   0.5618680925E-01   0.1275160216E+00   0.8162950371E-01  -0.3840404878E-01
  -0.2903295308E+00   0.9136930040E+00   0.3792275101E-02   0.3781290322E-01  -0.3093523498E-01   0.3792275101E-02   0.0000000000E+00   0.0000000000E+00   0.0000000000E+00   0.2664399223E+01   0.1496989875E+00   0.2940889505E-01   0.7119564563E+00   0.1437402545E+00   0.7285091982E-01
  -0.3515567077E+00   0.1060951763E+01   0.2004699417E+00   0.3930808132E-01  -0.3145128717E-01   0.4699387237E-03   0.0000000000E+00   0.0000000000E+00   0.0000000000E+00   0.2373946812E+01   0.2321882347E+00   0.8998257984E-01   0.2751835599E+00   0.6312719053E-01  -0.1059293882E-01
  -0.2913282530E+00   0.9142279222E+00   0.2010560164E+00   0.3681418101E-01  -0.3040031684E-01   0.1056013353E-02   0.0000000000E+00   0.0000000000E+00   0.0000000000E+00   0.2808982231E+01   0.2850681297E+00   0.2483017832E-01   0.8413484179E+00   0.1183884479E+00   0.5926458110E-01
   0.8548241399E+00   0.1046498879E+01   0.2593586732E-03   0.6783152991E-01  -0.2474274053E-01   0.2593586732E-03   0.0000000000E+00   0.0000000000E+00   0.0000000000E+00   0.1714546905E+01  -0.2969089492E+00  -0.1339907013E-02  -0.4801810135E-01  -0.2688303770E-01   0.1024383526E-01
   0.5744729678E+00   0.1149915684E+01   0.1840449652E-02   0.6082648478E-01  -0.3080893556E-01   0.1840449652E-02   0.0000000000E+00   0.0000000000E+00   0.0000000000E+00   0.2025810992E+01  -0.3867882398E-01  -0.3258357001E-02   0.1727690288E+00  -0.5391620767E-01  -0.2954486544E-01
   0.8555009305E+00   0.1046135791E+01   0.1988352637E+00   0.6850832047E-01  -0.2510582882E-01  -0.1164739259E-02   0.0000000000E+00   0.0000000000E+00   0.0000000000E+00   0.1612302155E+01  -0.1821630604E+00  -0.5775671418E-02  -0.1047496842E+00  -0.1844226166E-01   0.6188833685E-02
   0.5752847584E+00   0.1150172461E+01   0.1998356948E+00   0.6163827538E-01  -0.3055215877E-01  -0.1643082288E-03   0.0000000000E+00   0.0000000000E+00   0.0000000000E+00   0.2015912420E+01   0.5783522455E-01  -0.6790355254E-02   0.2786134485E-01  -0.4242427946E-01  -0.1668326622E-01
   0.3344038318E+00   0.1206349974E+01   0.2863494199E-02   0.5548890383E-01  -0.3493177594E-01   0.2863494199E-02   0.0000000000E+00   0.0000000000E+00   0.0000000000E+00   0.2093160299E+01   0.2044139154E+00  -0.6824109362E-02   0.1560926049E+00  -0.3680044940E-01  -0.6105188590E-01
   0.3349744083E+00   0.1207153855E+01   0.2004929091E+00   0.5605948033E-01  -0.3412789547E-01   0.4929061352E-03   0.0000000000E+00   0.0000000000E+00   0.0000000000E+00   0.2223620216E+01   0.2414118778E+00  -0.1547432482E-01   0.3432381600E-01  -0.2968650360E-01  -0.3128651855E-01
   0.1083115951E+00   0.1235240307E+01   0.3228571133E-02   0.5107652554E-01  -0.3681079277E-01   0.3228571133E-02   0.0000000000E+00   0.0000000000E+00   0.0000000000E+00   0.2074790895E+01   0.3342114995E+00  -0.9366421801E-02   0.5041080778E-01  -0.8264199504E-02  -0.8103089693E-01
   0.1084269468E+00   0.1236296654E+01   0.2007327429E+00   0.5119187715E-01  -0.3575444633E-01   0.7327398560E-03   0.0000000000E+00   0.0000000000E+00   0.0000000000E+00   0.2268914872E+01   0.3314969761E+00  -0.2036737949E-01   0.2251346979E-01  -0.6301214342E-02  -0.4614245793E-01
  -0.1166922419E+00   0.1242370835E+01   0.2968355630E-02   0.4692885607E-01  -0.3631878491E-01   0.2968355630E-02   0.0000000000E+00   0.0000000000E+00   0.0000000000E+00   0.2027272388E+01   0.2909086753E+00  -0.9779817681E-02  -0.1053165124E+00   0.2274156907E-01  -0.7436755773E-01
  -0.1170410495E+00   0.1243329435E+01   0.2005686808E+00   0.4658004854E-01  -0.3536018500E-01   0.5686777854E-03   0.0000000000E+00   0.0000000000E+00   0.0000000000E+00   0.2188217844E+01   0.3042570102E+00  -0.2079911928E-01  -0.2239533188E-01   0.1817451120E-01  -0.4217741816E-01
  -0.3466383813E+00   0.1231262193E+01   0.2175491800E-02   0.4258930667E-01  -0.3360248709E-01   0.2175491800E-02   0.0000000000E+00   0.0000000000E+00   0.0000000000E+00   0.1962947410E+01   0.8145187058E-01  -0.1741498416E-01  -0.2098559855E+00   0.3731300235E-01  -0.3922697431E-01
  -0.3472643429E+00   0.1231826922E+01   0.2000674970E+00   0.4196334505E-01  -0.3303775797E-01   0.6749402714E-04   0.0000000000E+00   0.0000000000E+00   0.0000000000E+00   0.2006410091E+01   0.1382869314E+00  -0.3319880446E-01  -0.7515451008E-01   0.2917717590E-01  -0.2116615414E-01
  -0.1280680511E+00   0.1408993310E+01   0.1804805724E-02   0.4724993694E-01  -0.3736584993E-01   0.1804805724E-02   0.0000000000E+00   0.0000000000E+00   0.0000000000E+00   0.1723549921E+01   0.2463833475E+00   0.3603074913E-02  -0.1600644291E+00   0.1055251033E-01  -0.3365285929E-01
  -0.3535355988E+00   0.1409527858E+01   0.1379577378E-02   0.4361813615E-01  -0.3498808194E-01   0.1379577378E-02   0.0000000000E+00   0.0000000000E+00   0.0000000000E+00   0.1734067179E+01   0.9197815213E-01   0.2845887976E-02  -0.2842891727E+00   0.1214663165E-01  -0.2032520270E-01
  -0.1282655020E+00   0.1409870749E+01   0.1998101175E+00   0.4705248598E-01  -0.3648841121E-01  -0.1898855268E-03   0.0000000000E+00   0.0000000000E+00   0.0000000000E+00   0.1794722257E+01   0.2264622185E+00  -0.7834804880E-02  -0.1029559867E+00   0.8158026411E-02  -0.3573497050E-01
  -0.3538684696E+00   0.1410131331E+01   0.1995346254E+00   0.4328526542E-01  -0.3438460911E-01  -0.4653776226E-03   0.0000000000E+00   0.0000000000E+00   0.0000000000E+00   0.1754538425E+01   0.9585022050E-01  -0.1053552311E-01  -0.1896549877E+00   0.9144239223E-02  -0.2324040053E-01
  -0.1412267373E+00   0.1587272739E+01   0.7577715975E-03   0.4740576568E-01  -0.3833189060E-01   0.7577715975E-03   0.0000000000E+00   0.0000000000E+00   0.0000000000E+00   0.1480880236E+01   0.1569033825E+00   0.3846464711E-02  -0.1660450260E+00   0.1933391702E-02  -0.3896378875E-01
  -0.3651634292E+00   0.1591335445E+01   0.6226744685E-03   0.4423447083E-01  -0.3615936511E-01   0.6226744685E-03   0.0000000000E+00   0.0000000000E+00   0.0000000000E+00   0.1516524341E+01   0.6378534213E-01   0.1534840038E-02  -0.2841137704E+00   0.1776265810E-02  -0.2701212918E-01
  -0.1412982617E+00   0.1588061428E+01   0.1991256533E+00   0.4733424133E-01  -0.3754320155E-01  -0.8743497230E-03   0.0000000000E+00   0.0000000000E+00   0.0000000000E+00   0.1498007546E+01   0.1323830755E+00  -0.9447256571E-03  -0.1193669610E+00   0.2630751776E-03  -0.1794464437E-01
  -0.3652726743E+00   0.1591908361E+01   0.1990426329E+00   0.4412522567E-01  -0.3558644876E-01  -0.9573701318E-03   0.0000000000E+00   0.0000000000E+00   0.0000000000E+00   0.1519395622E+01   0.5822484504E-01  -0.8574911644E-03  -0.2055991170E+00  -0.2352680118E-02  -0.1078899474E-01
  -0.1505972878E+00   0.1772066789E+01  -0.2392230427E-03   0.4768839622E-01  -0.3932075056E-01  -0.2392230427E-03   0.0000000000E+00   0.0000000000E+00   0.0000000000E+00   0.1181697393E+01   0.5289266012E-01  -0.1744699721E-01  -0.1085093524E+00  -0.6281936689E-02  -0.2273366437E-01
  -0.3738938819E+00   0.1775698531E+01  -0.9913390502E-04   0.4498774314E-01  -0.3725946864E-01  -0.9913390502E-04   0.0000000000E+00   0.0000000000E+00   0.0000000000E+00   0.1269277399E+01   0.2313303976E-01  -0.1116457061E-01  -0.1840328698E+00  -0.1140414713E-01  -0.1516204336E-01
  -0.1505602459E+00   0.1772813802E+01   0.1985368388E+00   0.4772543814E-01  -0.3857373799E-01  -0.1463164232E-02   0.0000000000E+00   0.0000000000E+00   0.0000000000E+00   0.1155542754E+01   0.3088802037E-01  -0.3284306164E-01  -0.7673625235E-01  -0.6314417872E-02  -0.1004449889E-02
  -0.3738171944E+00   0.1776256362E+01   0.1986127268E+00   0.4506443058E-01  -0.3670163817E-01  -0.1387276242E-02   0.0000000000E+00   0.0000000000E+00   0.0000000000E+00   0.1249146784E+01   0.9310258175E-02  -0.2293355528E-01  -0.1295676611E+00  -0.1141918951E-01   0.1012192764E-03
  -0.1576921378E+00   0.1959901756E+01  -0.1044898262E-02   0.4839938522E-01  -0.4009824365E-01  -0.1044898262E-02   0.0000000000E+00   0.0000000000E+00   0.0000000000E+00   0.8555866595E+00   0.3638395070E-01  -0.1246310244E-01  -0.4698678567E-01  -0.2409809286E-01  -0.4946768941E-02
  -0.3802456835E+00   0.1961832669E+01  -0.6840223774E-03   0.4639208553E-01  -0.3816733113E-01  -0.6840223774E-03   0.0000000000E+00   0.0000000000E+00   0.0000000000E+00   0.1028692253E+01   0.2224859083E-01  -0.7336302190E-02  -0.7760935321E-01  -0.4130421411E-01  -0.4167523787E-02
  -0.1576328604E+00   0.1960617922E+01   0.1980133495E+00   0.4845866256E-01  -0.3938207784E-01  -0.1986653548E-02   0.0000000000E+00   0.0000000000E+00   0.0000000000E+00   0.8314529782E+00   0.2078100494E-01  -0.6657500696E-02  -0.2737849485E-01  -0.2228791429E-01   0.6845924897E-02
  -0.3801381485E+00   0.1962363705E+01   0.1982311305E+00   0.4649962054E-01  -0.3763629453E-01  -0.1768872484E-02   0.0000000000E+00   0.0000000000E+00   0.0000000000E+00   0.1016329039E+01   0.1289927916E-01   0.7465672252E-03  -0.4546202805E-01  -0.3873878048E-01   0.4888658046E-02
   0.9715648559E-01   0.1399733166E+01   0.2000827493E-02   0.5073698429E-01  -0.3792299397E-01   0.2000827493E-02   0.0000000000E+00   0.0000000000E+00   0.0000000000E+00   0.1738216656E+01   0.2947972540E+00   0.5831256752E-02   0.3961499789E-01  -0.1297000197E-02  -0.3774534890E-01
   0.9720521409E-01   0.1400696097E+01   0.1999352826E+00   0.5078571279E-01  -0.3696006257E-01  -0.6472041834E-04   0.0000000000E+00   0.0000000000E+00   0.0000000000E+00   0.1833592342E+01   0.2676073412E+00  -0.5490247620E-02   0.2503760269E-01  -0.1110663954E-02  -0.3936874865E-01
   0.8405419082E-01   0.1579439918E+01   0.8517314682E-03   0.5046777442E-01  -0.3893324178E-01   0.8517314682E-03   0.0000000000E+00   0.0000000000E+00   0.0000000000E+00   0.1477284625E+01   0.1941326114E+00   0.4729068306E-02   0.2626764823E-01   0.2936446338E-03  -0.4467488671E-01
   0.8406354931E-01   0.1580296702E+01   0.1991850360E+00   0.5047713291E-01  -0.3807645761E-01  -0.8149669584E-03   0.0000000000E+00   0.0000000000E+00   0.0000000000E+00   0.1505381053E+01   0.1648309922E+00   0.1530759395E-02   0.1805188735E-01   0.4902892477E-03  -0.2234270863E-01
   0.7414916236E-01   0.1767491168E+01  -0.2618037577E-03   0.5027775546E-01  -0.3995269205E-01  -0.2618037577E-03   0.0000000000E+00   0.0000000000E+00   0.0000000000E+00   0.1157893588E+01   0.6867396657E-01  -0.1900072649E-01   0.1308827955E-01   0.3954683811E-03  -0.2560586980E-01
   0.7414362435E-01   0.1768301773E+01   0.1985261585E+00   0.5027221745E-01  -0.3914208705E-01  -0.1473844546E-02   0.0000000000E+00   0.0000000000E+00   0.0000000000E+00   0.1129061448E+01   0.4139505987E-01  -0.3755123147E-01   0.9162006458E-02   0.9885739059E-03  -0.2126534212E-02
   0.6649262202E-01   0.1959268513E+01  -0.1165027590E-02   0.5013259242E-01  -0.4073148690E-01  -0.1165027590E-02   0.0000000000E+00   0.0000000000E+00   0.0000000000E+00   0.7945650043E+00   0.4244817464E-01  -0.1519188179E-01   0.1213302970E-02   0.2739702165E-02  -0.5151224111E-02
   0.6648469516E-01   0.1960046094E+01   0.1979415724E+00   0.5012466556E-01  -0.3995390567E-01  -0.2058430645E-02   0.0000000000E+00   0.0000000000E+00   0.0000000000E+00   0.7674270739E+00   0.2408412334E-01  -0.8998327059E-02  -0.1498944208E-02   0.1774073848E-02   0.8135420034E-02
   0.3250936859E+00   0.1378414872E+01   0.1856857305E-02   0.5440392989E-01  -0.3636431832E-01   0.1856857305E-02   0.0000000000E+00   0.0000000000E+00   0.0000000000E+00   0.1775834677E+01   0.2033540558E+00   0.3839365266E-02   0.2192823573E+00  -0.1267256150E-01  -0.3229434207E-01
   0.3254029079E+00   0.1379205722E+01   0.1998448522E+00   0.5471315187E-01  -0.3557346795E-01  -0.1551507572E-03   0.0000000000E+00   0.0000000000E+00   0.0000000000E+00   0.1846528427E+01   0.2007040214E+00  -0.4646510144E-02   0.1338960296E+00  -0.1118809458E-01  -0.3343296867E-01
   0.3112880510E+00   0.1566178900E+01   0.8555724931E-03   0.5362670800E-01  -0.3770103044E-01   0.8555724931E-03   0.0000000000E+00   0.0000000000E+00   0.0000000000E+00   0.1520800245E+01   0.1492899053E+00   0.5969336430E-02   0.2136194600E+00  -0.4188196943E-02  -0.3808776878E-01
   0.3113899476E+00   0.1566922050E+01   0.1991855737E+00   0.5372860456E-01  -0.3695787962E-01  -0.8144292785E-03   0.0000000000E+00   0.0000000000E+00   0.0000000000E+00   0.1538876561E+01   0.1298660129E+00   0.1915741426E-02   0.1520994706E+00  -0.4528276582E-03  -0.1953518635E-01
   0.3000073643E+00   0.1761538310E+01  -0.1634312500E-03   0.5292736627E-01  -0.3893776048E-01  -0.1634312500E-03   0.0000000000E+00   0.0000000000E+00   0.0000000000E+00   0.1210134937E+01   0.5306535869E-01  -0.1850679342E-01   0.1354289081E+00   0.7435818471E-02  -0.2262969304E-01
   0.2999638061E+00   0.1762254601E+01   0.1985842993E+00   0.5288380812E-01  -0.3822146939E-01  -0.1415703748E-02   0.0000000000E+00   0.0000000000E+00   0.0000000000E+00   0.1186734891E+01   0.3066567441E-01  -0.3427529382E-01   0.9618161098E-01   0.7166608118E-02  -0.1947995854E-02
   0.2909720384E+00   0.1960110278E+01  -0.9930801581E-03   0.5189704842E-01  -0.3988972211E-01  -0.9930801581E-03   0.0000000000E+00   0.0000000000E+00   0.0000000000E+00   0.8777316890E+00   0.3964915973E-01  -0.9724906198E-02   0.5333999562E-01   0.2769422178E-01  -0.2750027249E-02
   0.2908994287E+00   0.1960799667E+01   0.1980412494E+00   0.5182443868E-01  -0.3920033265E-01  -0.1958753582E-02   0.0000000000E+00   0.0000000000E+00   0.0000000000E+00   0.8543560691E+00   0.2196918278E-01  -0.2953476521E-02   0.2974898376E-01   0.2557288482E-01   0.7311638646E-02
   0.5615094741E+00   0.1344652105E+01   0.1385792407E-02   0.5860017106E-01  -0.3292913510E-01   0.1385792407E-02   0.0000000000E+00   0.0000000000E+00   0.0000000000E+00   0.1799052874E+01   0.1448164189E-01   0.4612715449E-02   0.2675827266E+00  -0.1776669263E-01  -0.1225654793E-01
   0.5619644776E+00   0.1345073395E+01   0.1995346188E+00   0.5905517457E-01  -0.3250784466E-01  -0.4653841969E-03   0.0000000000E+00   0.0000000000E+00   0.0000000000E+00   0.1803337593E+01   0.4907165709E-01  -0.1127077309E-02   0.1597480319E+00  -0.1477862709E-01  -0.1359590252E-01
   0.5423501429E+00   0.1548372983E+01   0.7430862648E-03   0.5710378289E-01  -0.3486108653E-01   0.7430862648E-03   0.0000000000E+00   0.0000000000E+00   0.0000000000E+00   0.1578399941E+01   0.3205865722E-01  -0.1198472678E-02   0.3181504302E+00  -0.4287957558E-02  -0.2563653404E-01
   0.5425116758E+00   0.1548857456E+01   0.1991215258E+00   0.5726531584E-01  -0.3437661415E-01  -0.8784771761E-03   0.0000000000E+00   0.0000000000E+00   0.0000000000E+00   0.1579234547E+01   0.3527222411E-01  -0.7099365610E-02   0.2300223837E+00   0.1013322813E-02  -0.1303590096E-01
   0.5272132191E+00   0.1754678207E+01   0.2674662470E-04   0.5582759115E-01  -0.3650908327E-01   0.2674662470E-04   0.0000000000E+00   0.0000000000E+00   0.0000000000E+00   0.1320817762E+01   0.2318298327E-01  -0.7525456796E-02   0.2072065378E+00   0.1027119966E-01  -0.1322772186E-01
   0.5271444946E+00   0.1755180430E+01   0.1986871974E+00   0.5575886657E-01  -0.3600686033E-01  -0.1312805587E-02   0.0000000000E+00   0.0000000000E+00   0.0000000000E+00   0.1304384438E+01   0.9553010523E-02  -0.1738806253E-01   0.1477153940E+00   0.1051867936E-01  -0.8633796840E-03
   0.5153269612E+00   0.1962219400E+01  -0.6000062626E-03   0.5397118516E-01  -0.3778059983E-01  -0.6000062626E-03   0.0000000000E+00   0.0000000000E+00   0.0000000000E+00   0.1060646446E+01   0.2330728560E-01  -0.7667564127E-02   0.8264432320E-01   0.4220902245E-01  -0.3793484926E-02
   0.5152073249E+00   0.1962708413E+01   0.1982816448E+00   0.5385154892E-01  -0.3729158737E-01  -0.1718358222E-02   0.0000000000E+00   0.0000000000E+00   0.0000000000E+00   0.1050558299E+01   0.1333153073E-01  -0.2698187016E-03   0.4592378462E-01   0.3985335989E-01   0.5932247274E-02
   0.8081101517E+00   0.1304044126E+01   0.7161296100E-03   0.6335357269E-01  -0.2842450446E-01   0.7161296100E-03   0.0000000000E+00   0.0000000000E+00   0.0000000000E+00   0.1758415286E+01  -0.1783726000E+00   0.5596844171E-02   0.2022709498E+00  -0.1414567174E-01   0.6150538818E-02
   0.8085435097E+00   0.1304067562E+01   0.1991021313E+00   0.6378693073E-01  -0.2840106846E-01  -0.8978717100E-03   0.0000000000E+00   0.0000000000E+00   0.0000000000E+00   0.1721337722E+01  -0.1230031639E+00  -0.7635511423E-03   0.1184944340E+00  -0.7022601298E-02   0.1168081879E-02
   0.7735963090E+00   0.1529716057E+01   0.5696858206E-03   0.6089373700E-01  -0.3117867339E-01   0.5696858206E-03   0.0000000000E+00   0.0000000000E+00   0.0000000000E+00   0.1610280945E+01  -0.7362718012E-01   0.8971832529E-03   0.3051625221E+00  -0.2585952899E-02  -0.1362806013E-01
   0.7737645039E+00   0.1529902405E+01   0.1990137643E+00   0.6106193188E-01  -0.3099232535E-01  -0.9862386990E-03   0.0000000000E+00   0.0000000000E+00   0.0000000000E+00   0.1602442711E+01  -0.4759433848E-01   0.6973771853E-03   0.2225405001E+00   0.1520441771E-02  -0.6219799407E-02
   0.7508103415E+00   0.1747758402E+01   0.2241024329E-03   0.5895002348E-01  -0.3328059797E-01   0.2241024329E-03   0.0000000000E+00   0.0000000000E+00   0.0000000000E+00   0.1431144446E+01  -0.1490046192E-01  -0.4089965737E-02   0.2153161215E+00   0.9809562801E-02  -0.4689199248E-02
   0.7507362229E+00   0.1748007685E+01   0.1988018855E+00   0.5887590494E-01  -0.3303131490E-01  -0.1198117496E-02   0.0000000000E+00   0.0000000000E+00   0.0000000000E+00   0.1424426032E+01  -0.1926205701E-01  -0.1105359874E-01   0.1533465025E+00   0.1116271365E-01  -0.2792665228E-03
   0.7384997490E+00   0.1965102955E+01  -0.1041692149E-03   0.5653851105E-01  -0.3489704481E-01  -0.1041692149E-03   0.0000000000E+00   0.0000000000E+00   0.0000000000E+00   0.1288832786E+01   0.8707351965E-02   0.8071708623E-03   0.9532613520E-01   0.4353004723E-01  -0.1043878042E-02
   0.7383625552E+00   0.1965346540E+01   0.1985830602E+00   0.5640131723E-01  -0.3465345978E-01  -0.1416942810E-02   0.0000000000E+00   0.0000000000E+00   0.0000000000E+00   0.1294129673E+01   0.5001244603E-02   0.9580689965E-02   0.5614886558E-01   0.4150731277E-01   0.2892140426E-02
   0.9766865081E+00   0.1745547000E+01   0.3921087793E-03   0.6233003813E-01  -0.2981239007E-01   0.3921087793E-03   0.0000000000E+00   0.0000000000E+00   0.0000000000E+00   0.1517633883E+01  -0.3918602904E-01   0.4590472137E-03   0.1744071413E+00   0.8248423478E-02   0.1104824048E-02
   0.9618885752E+00   0.1968269272E+01   0.3580420252E-03   0.5958505816E-01  -0.3173072788E-01   0.3580420252E-03   0.0000000000E+00   0.0000000000E+00   0.0000000000E+00   0.1494678033E+01  -0.6212439433E-02   0.5222142772E-02   0.7279638043E-01   0.3434905936E-01   0.1207810240E-02
   0.9766226832E+00   0.1745560847E+01   0.1988999655E+00   0.6226621322E-01  -0.2979854283E-01  -0.1100037456E-02   0.0000000000E+00   0.0000000000E+00   0.0000000000E+00   0.1523610178E+01  -0.3178792759E-01  -0.1381146102E-03   0.1240635021E+00   0.8273102080E-02  -0.4250740222E-04
   0.9617683286E+00   0.1968291245E+01   0.1988690993E+00   0.5946481159E-01  -0.3170875458E-01  -0.1130903713E-02   0.0000000000E+00   0.0000000000E+00   0.0000000000E+00   0.1509019978E+01  -0.5784954984E-02   0.9439386458E-02   0.4039766156E-01   0.3418525173E-01  -0.3598753288E-03
   0.1200127461E+01   0.1746133068E+01   0.5098074956E-03   0.6577644128E-01  -0.2662947211E-01   0.5098074956E-03   0.0000000000E+00   0.0000000000E+00   0.0000000000E+00   0.1575807876E+01  -0.4522587842E-01   0.7169703109E-02   0.1027981707E+00   0.3761541404E-02   0.7171313532E-02
   0.1184556204E+01   0.1971293065E+01   0.6970634808E-03   0.6304867429E-01  -0.2870693454E-01   0.6970634808E-03   0.0000000000E+00   0.0000000000E+00   0.0000000000E+00   0.1638988892E+01  -0.1597075521E-01   0.4546392971E-02   0.5231624542E-01   0.2259377397E-01   0.2010572243E-03
   0.1200084128E+01   0.1745976109E+01   0.1989645816E+00   0.6573310782E-01  -0.2678643150E-01  -0.1035421399E-02   0.0000000000E+00   0.0000000000E+00   0.0000000000E+00   0.1589509613E+01  -0.3474510201E-01   0.1122137058E-01   0.7061114880E-01   0.4081476689E-02   0.6052684731E-03
   0.1184477472E+01   0.1971151142E+01   0.1990841713E+00   0.6296994161E-01  -0.2884885765E-01  -0.9158316518E-03   0.0000000000E+00   0.0000000000E+00   0.0000000000E+00   0.1658698241E+01  -0.9709753186E-02   0.4678278349E-02   0.3112863546E-01   0.2241669840E-01  -0.2247149597E-02
   0.1421390149E+01   0.1747932991E+01   0.5597338504E-03   0.6926187884E-01  -0.2397504852E-01   0.5597338504E-03   0.0000000000E+00   0.0000000000E+00   0.0000000000E+00   0.1592026898E+01  -0.3930294446E-01   0.5686183810E-02   0.3305142624E-01   0.1083302135E-02   0.9287077429E-02
   0.1406261122E+01   0.1973909150E+01   0.8862661768E-03   0.6673542211E-01  -0.2609085034E-01   0.8862661768E-03   0.0000000000E+00   0.0000000000E+00   0.0000000000E+00   0.1718549985E+01  -0.1896219908E-01   0.6802588124E-02   0.1981736140E-01   0.9391168879E-02   0.1695309147E-02
   0.1421378486E+01   0.1747683723E+01   0.1989945345E+00   0.6925021650E-01  -0.2422431722E-01  -0.1005468495E-02   0.0000000000E+00   0.0000000000E+00   0.0000000000E+00   0.1607265082E+01  -0.3017763961E-01   0.9272470389E-02   0.1869157974E-01   0.1539734339E-02   0.5185547804E-03
   0.1406229840E+01   0.1973670225E+01   0.1992028314E+00   0.6670413964E-01  -0.2632977515E-01  -0.7971715661E-03   0.0000000000E+00   0.0000000000E+00   0.0000000000E+00   0.1739512736E+01  -0.1184591909E-01   0.5814881646E-02   0.9329694312E-02   0.9906238268E-02  -0.3200427446E-02
   0.1641117130E+01   0.1749986387E+01   0.5591578871E-03   0.7269433963E-01  -0.2192177333E-01   0.5591578871E-03   0.0000000000E+00   0.0000000000E+00   0.0000000000E+00   0.1582862161E+01  -0.2494667773E-01   0.8050259394E-02  -0.2048397334E-01  -0.1035946998E-02   0.9205979583E-02
   0.1627192439E+01   0.1976016716E+01   0.9247759425E-03   0.7052892858E-01  -0.2398328414E-01   0.9247759425E-03   0.0000000000E+00   0.0000000000E+00   0.0000000000E+00   0.1730243939E+01  -0.1848731686E-01   0.3037134719E-02   0.1855544348E-03  -0.1990958636E-03   0.5043259555E-03
   0.1641135854E+01   0.1749704509E+01   0.1989918692E+00   0.7271306377E-01  -0.2220365134E-01  -0.1008133816E-02   0.0000000000E+00   0.0000000000E+00   0.0000000000E+00   0.1597151039E+01  -0.1680908607E-01   0.1269608011E-01  -0.2233918697E-01  -0.4939966394E-03  -0.5418311557E-03
   0.1627208104E+01   0.1975746594E+01   0.1992318679E+00   0.7054459413E-01  -0.2425340608E-01  -0.7681351245E-03   0.0000000000E+00   0.0000000000E+00   0.0000000000E+00   0.1747182861E+01  -0.1091927120E-01  -0.1561068148E-02  -0.1058739337E-02   0.8744896285E-03  -0.3290222135E-02
   0.1859943122E+01   0.1751903081E+01   0.5040555379E-03   0.7606599192E-01  -0.2040419923E-01   0.5040555379E-03   0.0000000000E+00   0.0000000000E+00   0.0000000000E+00   0.1551712186E+01  -0.1461843653E-01   0.5281329480E-02  -0.5170267116E-01  -0.2765124005E-02   0.7780730402E-02
   0.1847537589E+01   0.1977620315E+01   0.8618585968E-03   0.7428140860E-01  -0.2237968452E-01   0.8618585968E-03   0.0000000000E+00   0.0000000000E+00   0.0000000000E+00   0.1700359196E+01  -0.1474086309E-01   0.3273303974E-02  -0.1621454177E-01  -0.5924995953E-02   0.1015733315E-02
   0.1859989265E+01   0.1751629637E+01   0.1989599902E+00   0.7611213538E-01  -0.2067764280E-01  -0.1040012779E-02   0.0000000000E+00   0.0000000000E+00   0.0000000000E+00   0.1562783435E+01  -0.8107245793E-02   0.8466889650E-02  -0.4606124186E-01  -0.1729264102E-02  -0.1313629583E-02
   0.1847587813E+01   0.1977357311E+01   0.1991935657E+00   0.7433163348E-01  -0.2264268874E-01  -0.8064373344E-03   0.0000000000E+00   0.0000000000E+00   0.0000000000E+00   0.1711868272E+01  -0.8277012249E-02  -0.1623433147E-02  -0.1282141419E-01  -0.4757235739E-02  -0.3249211189E-02