 VARIABLES = X,Y,DU1,DU2,U1,U2
 ZONE, T="0.1000D-02" F=FEPOINT, I= 4624 J= 4489
  -0.5000000000E+00  -0.5000000000E+00  -0.1020247897E-01  -0.3177832345E-03   0.0000000000E+00   0.8798439564E-02
  -0.4850746390E+00  -0.5000000000E+00  -0.1012491513E-01   0.1319743126E-02   0.0000000000E+00   0.7856991583E-02
  -0.4850746390E+00  -0.4850746390E+00  -0.1002755554E-01   0.2792663721E-02   0.0000000000E+00   0.7016280136E-02
  -0.5000000000E+00  -0.4850746390E+00  -0.1012491513E-01   0.1319743125E-02   0.0000000000E+00   0.7856991583E-02
  -0.4701492490E+00  -0.5000000000E+00  -0.9411456465E-02   0.3449435999E-02   0.0000000000E+00   0.6523371233E-02
  -0.4701492490E+00  -0.4850746390E+00  -0.9280017580E-02   0.4630664201E-02   0.0000000000E+00   0.5825359429E-02
  -0.4552238880E+00  -0.5000000000E+00  -0.7381175816E-02   0.3598608855E-02   0.0000000000E+00   0.4864149248E-02
  -0.4552238880E+00  -0.4850746390E+00  -0.7238500004E-02   0.4458814635E-02   0.0000000000E+00   0.4343677015E-02
  -0.4402984980E+00  -0.5000000000E+00  -0.4074785065E-02   0.1103134615E-02   0.0000000000E+00   0.2962136995E-02
  -0.4402984980E+00  -0.4850746390E+00  -0.3959939190E-02   0.1672253166E-02   0.0000000000E+00   0.2645183304E-02
  -0.4253731370E+00  -0.5000000000E+00  -0.4436166299E-03  -0.1893334203E-02   0.0000000000E+00   0.9122777984E-03
  -0.4253731370E+00  -0.4850746390E+00  -0.3799210648E-03  -0.1610178576E-02   0.0000000000E+00   0.8146625241E-03
  -0.4104477470E+00  -0.5000000000E+00   0.2415643421E-02  -0.2699081633E-02   0.0000000000E+00  -0.1183120364E-02
  -0.4104477470E+00  -0.4850746390E+00   0.2434763707E-02  -0.2755245593E-02   0.0000000000E+00  -0.1056524475E-02
  -0.3955223860E+00  -0.5000000000E+00   0.4195465330E-02  -0.1004083926E-02   0.0000000000E+00  -0.3219460864E-02
  -0.3955223860E+00  -0.4850746390E+00   0.4191800177E-02  -0.1459684548E-02   0.0000000000E+00  -0.2874973082E-02
  -0.3805970250E+00  -0.5000000000E+00   0.5477889830E-02   0.9405580056E-03   0.0000000000E+00  -0.5095107014E-02
  -0.3805970250E+00  -0.4850746390E+00   0.5463999043E-02   0.9045119999E-04   0.0000000000E+00  -0.4549921908E-02
  -0.3656716350E+00  -0.5000000000E+00   0.6947557648E-02   0.1018612445E-02   0.0000000000E+00  -0.6716441721E-02
  -0.3656716350E+00  -0.4850746390E+00   0.6918453379E-02  -0.1476876352E-03   0.0000000000E+00  -0.5997771047E-02
  -0.3507462740E+00  -0.5000000000E+00   0.8650626031E-02  -0.4542767543E-03   0.0000000000E+00  -0.8002532327E-02
  -0.3507462740E+00  -0.4850746390E+00   0.8595211264E-02  -0.1842003728E-02   0.0000000000E+00  -0.7146247772E-02
  -0.3358208840E+00  -0.5000000000E+00   0.1009340046E-01  -0.1491427095E-02   0.0000000000E+00  -0.8889190360E-02
  -0.3358208840E+00  -0.4850746390E+00   0.1000657789E-01  -0.3035624700E-02   0.0000000000E+00  -0.7938031889E-02
  -0.3208955230E+00  -0.5000000000E+00   0.1092361306E-01  -0.1112143340E-02   0.0000000000E+00  -0.9332156241E-02
  -0.3208955230E+00  -0.4850746390E+00   0.1080375642E-01  -0.2758507080E-02   0.0000000000E+00  -0.8333599668E-02
  -0.3059701620E+00  -0.5000000000E+00   0.1127726195E-01  -0.5141533608E-03   0.0000000000E+00  -0.9309322150E-02
  -0.3059701620E+00  -0.4850746390E+00   0.1111662866E-01  -0.2168932085E-02   0.0000000000E+00  -0.8313208864E-02
  -0.2910447720E+00  -0.5000000000E+00   0.1138421242E-01  -0.1322477049E-02   0.0000000000E+00  -0.8821826429E-02
  -0.2910447720E+00  -0.4850746390E+00   0.1117097066E-01  -0.2848365033E-02   0.0000000000E+00  -0.7877876013E-02
  -0.2761194110E+00  -0.5000000000E+00   0.1102306457E-01  -0.3223220260E-02   0.0000000000E+00  -0.7894003549E-02
  -0.2761194110E+00  -0.4850746390E+00   0.1075814848E-01  -0.4499924420E-02   0.0000000000E+00  -0.7049331759E-02
  -0.2611940210E+00  -0.5000000000E+00   0.9626800932E-02  -0.4082711900E-02   0.0000000000E+00  -0.6572160928E-02
  -0.2611940210E+00  -0.4850746390E+00   0.9336779047E-02  -0.5065607249E-02   0.0000000000E+00  -0.5868928543E-02
  -0.2462686600E+00  -0.5000000000E+00   0.6996114909E-02  -0.2524260501E-02   0.0000000000E+00  -0.4922281384E-02
  -0.2462686600E+00  -0.4850746390E+00   0.6723927159E-02  -0.3230869991E-02   0.0000000000E+00  -0.4395588914E-02
  -0.2313432840E+00  -0.5000000000E+00   0.3744626177E-02   0.2122447844E-03   0.0000000000E+00  -0.3026711872E-02
  -0.2313432840E+00  -0.4850746390E+00   0.3524549231E-02  -0.2269892318E-03   0.0000000000E+00  -0.2702848560E-02
  -0.2164179090E+00  -0.5000000000E+00   0.8510442668E-03   0.1523158453E-02   0.0000000000E+00  -0.9800686121E-03
  -0.2164179090E+00  -0.4850746390E+00   0.6932563821E-03   0.1394308786E-02   0.0000000000E+00  -0.8751996056E-03
  -0.2014925330E+00  -0.5000000000E+00  -0.1243153106E-02   0.4068294308E-03   0.0000000000E+00   0.1115493470E-02
  -0.2014925330E+00  -0.4850746390E+00  -0.1343309159E-02   0.6472338801E-03   0.0000000000E+00   0.9961337733E-03
  -0.1865671580E+00  -0.5000000000E+00  -0.2972306492E-02  -0.1399648454E-02   0.0000000000E+00   0.3155377197E-02
  -0.1865671580E+00  -0.4850746390E+00  -0.3013228798E-02  -0.7864442573E-03   0.0000000000E+00   0.2817746476E-02
  -0.1716417970E+00  -0.5000000000E+00  -0.5036118509E-02  -0.1480165868E-02   0.0000000000E+00   0.5037763255E-02
  -0.1716417970E+00  -0.4850746390E+00  -0.5002269185E-02  -0.5663349527E-03   0.0000000000E+00   0.4498714028E-02
  -0.1567164210E+00  -0.5000000000E+00  -0.7552489726E-02   0.4851981733E-03   0.0000000000E+00   0.6668698729E-02
  -0.1567164210E+00  -0.4850746390E+00  -0.7427854555E-02   0.1604670804E-02   0.0000000000E+00   0.5955136636E-02
  -0.1417910460E+00  -0.5000000000E+00  -0.9931152913E-02   0.2528031543E-02   0.0000000000E+00   0.7966775804E-02
  -0.1417910460E+00  -0.4850746390E+00  -0.9716092663E-02   0.3794939630E-02   0.0000000000E+00   0.7114317258E-02
  -0.1268656700E+00  -0.5000000000E+00  -0.1153955115E-01   0.2892630154E-02   0.0000000000E+00   0.8867203037E-02
  -0.1268656700E+00  -0.4850746390E+00  -0.1125084256E-01   0.4280592785E-02   0.0000000000E+00   0.7918397248E-02
  -0.1119403020E+00  -0.5000000000E+00  -0.1230632809E-01   0.2085488521E-02   0.0000000000E+00   0.9325036702E-02
  -0.1119403020E+00  -0.4850746390E+00  -0.1196260850E-01   0.3543220004E-02   0.0000000000E+00   0.8327241933E-02
  -0.9701492640E-01  -0.5000000000E+00  -0.1255678736E-01   0.1988552536E-02   0.0000000000E+00   0.9317425199E-02
  -0.9701492640E-01  -0.4850746390E+00  -0.1217003519E-01   0.3410667235E-02   0.0000000000E+00   0.8320444873E-02
  -0.8208955080E-01  -0.5000000000E+00  -0.1237551377E-01   0.3253877011E-02   0.0000000000E+00   0.8844748094E-02
  -0.8208955080E-01  -0.4850746390E+00  -0.1196041865E-01   0.4524142808E-02   0.0000000000E+00   0.7898345021E-02
  -0.6716418270E-01  -0.5000000000E+00  -0.1138033200E-01   0.4329463469E-02   0.0000000000E+00   0.7930598935E-02
  -0.6716418270E-01  -0.4850746390E+00  -0.1096882487E-01   0.5388978317E-02   0.0000000000E+00   0.7082011376E-02
  -0.5223880710E-01  -0.5000000000E+00  -0.9239512164E-02   0.3393299247E-02   0.0000000000E+00   0.6620605222E-02
  -0.5223880710E-01  -0.4850746390E+00  -0.8878895656E-02   0.4251386422E-02   0.0000000000E+00   0.5912189215E-02
  -0.3731343150E-01  -0.5000000000E+00  -0.6276389088E-02   0.7871282191E-03   0.0000000000E+00   0.4980153718E-02
  -0.3731343150E-01  -0.4850746390E+00  -0.6008459094E-02   0.1460611924E-02   0.0000000000E+00   0.4447268809E-02
  -0.2238805960E-01  -0.5000000000E+00  -0.3338373020E-02  -0.1156331059E-02   0.0000000000E+00   0.3091125643E-02
  -0.2238805960E-01  -0.4850746390E+00  -0.3180664865E-02  -0.7020987829E-03   0.0000000000E+00   0.2760369948E-02
  -0.7462686390E-02  -0.5000000000E+00  -0.9971580495E-03  -0.8048730330E-03   0.0000000000E+00   0.1047808462E-02
  -0.7462686390E-02  -0.4850746390E+00  -0.9462120977E-03  -0.6411138795E-03   0.0000000000E+00   0.9356911768E-03
   0.7462686390E-02  -0.5000000000E+00   0.9971580495E-03   0.8048730329E-03   0.0000000000E+00  -0.1047808462E-02
   0.7462686390E-02  -0.4850746390E+00   0.9462120977E-03   0.6411138795E-03   0.0000000000E+00  -0.9356911768E-03
   0.2238805960E-01  -0.5000000000E+00   0.3338373020E-02   0.1156331058E-02   0.0000000000E+00  -0.3091125643E-02
   0.2238805960E-01  -0.4850746390E+00   0.3180664865E-02   0.7020987829E-03   0.0000000000E+00  -0.2760369948E-02
   0.3731343150E-01  -0.5000000000E+00   0.6276389089E-02  -0.7871282193E-03   0.0000000000E+00  -0.4980153718E-02
   0.3731343150E-01  -0.4850746390E+00   0.6008459094E-02  -0.1460611924E-02   0.0000000000E+00  -0.4447268809E-02
   0.5223880710E-01  -0.5000000000E+00   0.9239512164E-02  -0.3393299247E-02   0.0000000000E+00  -0.6620605222E-02
   0.5223880710E-01  -0.4850746390E+00   0.8878895656E-02  -0.4251386422E-02   0.0000000000E+00  -0.5912189215E-02
   0.6716418270E-01  -0.5000000000E+00   0.1138033200E-01  -0.4329463470E-02   0.0000000000E+00  -0.7930598935E-02
   0.6716418270E-01  -0.4850746390E+00   0.1096882487E-01  -0.5388978318E-02   0.0000000000E+00  -0.7082011376E-02
   0.8208955080E-01  -0.5000000000E+00   0.1237551377E-01  -0.3253877012E-02   0.0000000000E+00  -0.8844748094E-02
   0.8208955080E-01  -0.4850746390E+00   0.1196041865E-01  -0.4524142809E-02   0.0000000000E+00  -0.7898345021E-02
   0.9701492640E-01  -0.5000000000E+00   0.1255678736E-01  -0.1988552536E-02   0.0000000000E+00  -0.9317425199E-02
   0.9701492640E-01  -0.4850746390E+00   0.1217003519E-01  -0.3410667235E-02   0.0000000000E+00  -0.8320444873E-02
   0.1119403020E+00  -0.5000000000E+00   0.1230632809E-01  -0.2085488521E-02   0.0000000000E+00  -0.9325036702E-02
   0.1119403020E+00  -0.4850746390E+00   0.1196260850E-01  -0.3543220004E-02   0.0000000000E+00  -0.8327241933E-02
   0.1268656700E+00  -0.5000000000E+00   0.1153955115E-01  -0.2892630153E-02   0.0000000000E+00  -0.8867203037E-02
   0.1268656700E+00  -0.4850746390E+00   0.1125084256E-01  -0.4280592785E-02   0.0000000000E+00  -0.7918397248E-02
   0.1417910460E+00  -0.5000000000E+00   0.9931152912E-02  -0.2528031542E-02   0.0000000000E+00  -0.7966775804E-02
   0.1417910460E+00  -0.4850746390E+00   0.9716092663E-02  -0.3794939629E-02   0.0000000000E+00  -0.7114317258E-02
   0.1567164210E+00  -0.5000000000E+00   0.7552489725E-02  -0.4851981726E-03   0.0000000000E+00  -0.6668698729E-02
   0.1567164210E+00  -0.4850746390E+00   0.7427854555E-02  -0.1604670803E-02   0.0000000000E+00  -0.5955136636E-02
   0.1716417970E+00  -0.5000000000E+00   0.5036118509E-02   0.1480165868E-02   0.0000000000E+00  -0.5037763255E-02
   0.1716417970E+00  -0.4850746390E+00   0.5002269185E-02   0.5663349527E-03   0.0000000000E+00  -0.4498714028E-02
   0.1865671580E+00  -0.5000000000E+00   0.2972306492E-02   0.1399648454E-02   0.0000000000E+00  -0.3155377197E-02
   0.1865671580E+00  -0.4850746390E+00   0.3013228798E-02   0.7864442569E-03   0.0000000000E+00  -0.2817746476E-02
   0.2014925330E+00  -0.5000000000E+00   0.1243153107E-02  -0.4068294311E-03   0.0000000000E+00  -0.1115493470E-02
   0.2014925330E+00  -0.4850746390E+00   0.1343309160E-02  -0.6472338804E-03   0.0000000000E+00  -0.9961337733E-03
   0.2164179090E+00  -0.5000000000E+00  -0.8510442668E-03  -0.1523158453E-02   0.0000000000E+00   0.9800686121E-03
   0.2164179090E+00  -0.4850746390E+00  -0.6932563820E-03  -0.1394308786E-02   0.0000000000E+00   0.8751996056E-03
   0.2313432840E+00  -0.5000000000E+00  -0.3744626177E-02  -0.2122447841E-03   0.0000000000E+00   0.3026711872E-02
   0.2313432840E+00  -0.4850746390E+00  -0.3524549231E-02   0.2269892320E-03   0.0000000000E+00   0.2702848560E-02
   0.2462686600E+00  -0.5000000000E+00  -0.6996114909E-02   0.2524260501E-02   0.0000000000E+00   0.4922281384E-02
   0.2462686600E+00  -0.4850746390E+00  -0.6723927159E-02   0.3230869992E-02   0.0000000000E+00   0.4395588914E-02
   0.2611940210E+00  -0.5000000000E+00  -0.9626800932E-02   0.4082711900E-02   0.0000000000E+00   0.6572160928E-02
   0.2611940210E+00  -0.4850746390E+00  -0.9336779047E-02   0.5065607249E-02   0.0000000000E+00   0.5868928543E-02
   0.2761194110E+00  -0.5000000000E+00  -0.1102306457E-01   0.3223220260E-02   0.0000000000E+00   0.7894003549E-02
   0.2761194110E+00  -0.4850746390E+00  -0.1075814848E-01   0.4499924420E-02   0.0000000000E+00   0.7049331759E-02
   0.2910447720E+00  -0.5000000000E+00  -0.1138421242E-01   0.1322477048E-02   0.0000000000E+00   0.8821826429E-02
   0.2910447720E+00  -0.4850746390E+00  -0.1117097066E-01   0.2848365033E-02   0.0000000000E+00   0.7877876013E-02
   0.3059701620E+00  -0.5000000000E+00  -0.1127726195E-01   0.5141533602E-03   0.0000000000E+00   0.9309322150E-02
   0.3059701620E+00  -0.4850746390E+00  -0.1111662866E-01   0.2168932085E-02   0.0000000000E+00   0.8313208864E-02
   0.3208955230E+00  -0.5000000000E+00  -0.1092361306E-01   0.1112143340E-02   0.0000000000E+00   0.9332156241E-02
   0.3208955230E+00  -0.4850746390E+00  -0.1080375642E-01   0.2758507080E-02   0.0000000000E+00   0.8333599668E-02
   0.3358208840E+00  -0.5000000000E+00  -0.1009340046E-01   0.1491427095E-02   0.0000000000E+00   0.8889190360E-02
   0.3358208840E+00  -0.4850746390E+00  -0.1000657789E-01   0.3035624700E-02   0.0000000000E+00   0.7938031889E-02
   0.3507462740E+00  -0.5000000000E+00  -0.8650626031E-02   0.4542767541E-03   0.0000000000E+00   0.8002532327E-02
   0.3507462740E+00  -0.4850746390E+00  -0.8595211264E-02   0.1842003728E-02   0.0000000000E+00   0.7146247772E-02
   0.3656716350E+00  -0.5000000000E+00  -0.6947557648E-02  -0.1018612445E-02   0.0000000000E+00   0.6716441721E-02
   0.3656716350E+00  -0.4850746390E+00  -0.6918453379E-02   0.1476876352E-03   0.0000000000E+00   0.5997771047E-02
   0.3805970250E+00  -0.5000000000E+00  -0.5477889830E-02  -0.9405580057E-03   0.0000000000E+00   0.5095107014E-02
   0.3805970250E+00  -0.4850746390E+00  -0.5463999043E-02  -0.9045119995E-04   0.0000000000E+00   0.4549921908E-02
   0.3955223860E+00  -0.5000000000E+00  -0.4195465330E-02   0.1004083926E-02   0.0000000000E+00   0.3219460864E-02
   0.3955223860E+00  -0.4850746390E+00  -0.4191800177E-02   0.1459684548E-02   0.0000000000E+00   0.2874973082E-02
   0.4104477470E+00  -0.5000000000E+00  -0.2415643421E-02   0.2699081633E-02   0.0000000000E+00   0.1183120364E-02
   0.4104477470E+00  -0.4850746390E+00  -0.2434763707E-02   0.2755245594E-02   0.0000000000E+00   0.1056524475E-02
   0.4253731370E+00  -0.5000000000E+00   0.4436166297E-03   0.1893334204E-02   0.0000000000E+00  -0.9122777984E-03
   0.4253731370E+00  -0.4850746390E+00   0.3799210647E-03   0.1610178577E-02   0.0000000000E+00  -0.8146625241E-03
   0.4402984980E+00  -0.5000000000E+00   0.4074785065E-02  -0.1103134614E-02   0.0000000000E+00  -0.2962136995E-02
   0.4402984980E+00  -0.4850746390E+00   0.3959939190E-02  -0.1672253165E-02   0.0000000000E+00  -0.2645183304E-02
   0.4552238880E+00  -0.5000000000E+00   0.7381175816E-02  -0.3598608855E-02   0.0000000000E+00  -0.4864149248E-02
   0.4552238880E+00  -0.4850746390E+00   0.7238500004E-02  -0.4458814635E-02   0.0000000000E+00  -0.4343677015E-02
   0.4701492490E+00  -0.5000000000E+00   0.9411456465E-02  -0.3449435998E-02   0.0000000000E+00  -0.6523371233E-02
   0.4701492490E+00  -0.4850746390E+00   0.9280017580E-02  -0.4630664201E-02   0.0000000000E+00  -0.5825359429E-02
   0.4850746390E+00  -0.5000000000E+00   0.1012491513E-01  -0.1319743126E-02   0.0000000000E+00  -0.7856991583E-02
   0.4850746390E+00  -0.4850746390E+00   0.1002755554E-01  -0.2792663721E-02   0.0000000000E+00  -0.7016280136E-02
   0.5000000000E+00  -0.5000000000E+00   0.1020247897E-01   0.3177832345E-03   0.0000000000E+00  -0.8798439564E-02
   0.5000000000E+00  -0.4850746390E+00   0.1012491513E-01  -0.1319743126E-02   0.0000000000E+00  -0.7856991583E-02
  -0.4850746390E+00  -0.4701492490E+00  -0.9280017580E-02   0.4630664200E-02   0.0000000000E+00   0.5825359429E-02
  -0.5000000000E+00  -0.4701492490E+00  -0.9411456465E-02   0.3449435998E-02   0.0000000000E+00   0.6523371233E-02
  -0.4701492490E+00  -0.4701492490E+00  -0.8493724858E-02   0.5945471106E-02   0.0000000000E+00   0.4836581753E-02
  -0.4552238880E+00  -0.4701492490E+00  -0.6508871567E-02   0.5289767316E-02   0.0000000000E+00   0.3606395321E-02
  -0.4402984980E+00  -0.4701492490E+00  -0.3421584754E-02   0.2204387900E-02   0.0000000000E+00   0.2196198442E-02
  -0.4253731370E+00  -0.4701492490E+00  -0.1119879849E-03  -0.1300251195E-02   0.0000000000E+00   0.6763843410E-03
  -0.4104477470E+00  -0.4701492490E+00   0.2449199628E-02  -0.2798685125E-02   0.0000000000E+00  -0.8771934263E-03
  -0.3955223860E+00  -0.4701492490E+00   0.4020792783E-02  -0.2040026581E-02   0.0000000000E+00  -0.2386984446E-02
  -0.3805970250E+00  -0.4701492490E+00   0.5153562367E-02  -0.1048637489E-02   0.0000000000E+00  -0.3777632873E-02
  -0.3656716350E+00  -0.4701492490E+00   0.6467854799E-02  -0.1680380449E-02   0.0000000000E+00  -0.4979728780E-02
  -0.3507462740E+00  -0.4701492490E+00   0.7990858658E-02  -0.3583281932E-02   0.0000000000E+00  -0.5933266779E-02
  -0.3358208840E+00  -0.4701492490E+00   0.9257370923E-02  -0.4913821313E-02   0.0000000000E+00  -0.6590656020E-02
  -0.3208955230E+00  -0.4701492490E+00   0.9932361170E-02  -0.4752300782E-02   0.0000000000E+00  -0.6919081403E-02
  -0.3059701620E+00  -0.4701492490E+00   0.1012926701E-01  -0.4151047419E-02   0.0000000000E+00  -0.6902151668E-02
  -0.2910447720E+00  -0.4701492490E+00   0.1006130449E-01  -0.4564860593E-02   0.0000000000E+00  -0.6540710808E-02
  -0.2761194110E+00  -0.4701492490E+00   0.9555052288E-02  -0.5740986836E-02   0.0000000000E+00  -0.5852800976E-02
  -0.2611940210E+00  -0.4701492490E+00   0.8140578284E-02  -0.5831001352E-02   0.0000000000E+00  -0.4872755586E-02
  -0.2462686600E+00  -0.4701492490E+00   0.5677676791E-02  -0.3682647738E-02   0.0000000000E+00  -0.3649495862E-02
  -0.2313432840E+00  -0.4701492490E+00   0.2739380030E-02  -0.4745665975E-03   0.0000000000E+00  -0.2244075783E-02
  -0.2164179090E+00  -0.4701492490E+00   0.2028499240E-03   0.1425646472E-02   0.0000000000E+00  -0.7266460541E-03
  -0.2014925330E+00  -0.4701492490E+00  -0.1554695579E-02   0.1111139763E-02   0.0000000000E+00   0.8270532471E-03
  -0.1865671580E+00  -0.4701492490E+00  -0.2947616021E-02   0.1322807391E-03   0.0000000000E+00   0.2339471299E-02
  -0.1716417970E+00  -0.4701492490E+00  -0.4624679988E-02   0.6372391920E-03   0.0000000000E+00   0.3735116853E-02
  -0.1567164210E+00  -0.4701492490E+00  -0.6705833729E-02   0.2886409548E-02   0.0000000000E+00   0.4944330996E-02
  -0.1417910460E+00  -0.4701492490E+00  -0.8669353248E-02   0.5085856977E-02   0.0000000000E+00   0.5906756047E-02
  -0.1268656700E+00  -0.4701492490E+00  -0.9950879050E-02   0.5630901659E-02   0.0000000000E+00   0.6574354099E-02
  -0.1119403020E+00  -0.4701492490E+00  -0.1048845530E-01   0.4947602122E-02   0.0000000000E+00   0.6913802809E-02
  -0.9701492640E-01  -0.4701492490E+00  -0.1058118046E-01   0.4712121617E-02   0.0000000000E+00   0.6908159460E-02
  -0.8208955080E-01  -0.4701492490E+00  -0.1032238718E-01   0.5531019837E-02   0.0000000000E+00   0.6557705473E-02
  -0.6716418270E-01  -0.4701492490E+00  -0.9394463591E-02   0.6066876743E-02   0.0000000000E+00   0.5879933661E-02
  -0.5223880710E-01  -0.4701492490E+00  -0.7522092494E-02   0.4748303826E-02   0.0000000000E+00   0.4908673332E-02
  -0.3731343150E-01  -0.4701492490E+00  -0.5002591362E-02   0.1923161661E-02   0.0000000000E+00   0.3692403779E-02
  -0.2238805960E-01  -0.4701492490E+00  -0.2583855262E-02  -0.3053653939E-03   0.0000000000E+00   0.2291833677E-02
  -0.7462686390E-02  -0.4701492490E+00  -0.7517047298E-03  -0.4772591333E-03   0.0000000000E+00   0.7768699816E-03
   0.7462686390E-02  -0.4701492490E+00   0.7517047296E-03   0.4772591336E-03   0.0000000000E+00  -0.7768699816E-03
   0.2238805960E-01  -0.4701492490E+00   0.2583855262E-02   0.3053653941E-03   0.0000000000E+00  -0.2291833677E-02
   0.3731343150E-01  -0.4701492490E+00   0.5002591362E-02  -0.1923161661E-02   0.0000000000E+00  -0.3692403779E-02
   0.5223880710E-01  -0.4701492490E+00   0.7522092494E-02  -0.4748303826E-02   0.0000000000E+00  -0.4908673332E-02
   0.6716418270E-01  -0.4701492490E+00   0.9394463591E-02  -0.6066876744E-02   0.0000000000E+00  -0.5879933661E-02
   0.8208955080E-01  -0.4701492490E+00   0.1032238718E-01  -0.5531019837E-02   0.0000000000E+00  -0.6557705473E-02
   0.9701492640E-01  -0.4701492490E+00   0.1058118046E-01  -0.4712121617E-02   0.0000000000E+00  -0.6908159460E-02
   0.1119403020E+00  -0.4701492490E+00   0.1048845530E-01  -0.4947602122E-02   0.0000000000E+00  -0.6913802809E-02
   0.1268656700E+00  -0.4701492490E+00   0.9950879050E-02  -0.5630901659E-02   0.0000000000E+00  -0.6574354099E-02
   0.1417910460E+00  -0.4701492490E+00   0.8669353248E-02  -0.5085856977E-02   0.0000000000E+00  -0.5906756047E-02
   0.1567164210E+00  -0.4701492490E+00   0.6705833729E-02  -0.2886409548E-02   0.0000000000E+00  -0.4944330996E-02
   0.1716417970E+00  -0.4701492490E+00   0.4624679988E-02  -0.6372391923E-03   0.0000000000E+00  -0.3735116853E-02
   0.1865671580E+00  -0.4701492490E+00   0.2947616021E-02  -0.1322807395E-03   0.0000000000E+00  -0.2339471299E-02
   0.2014925330E+00  -0.4701492490E+00   0.1554695579E-02  -0.1111139763E-02   0.0000000000E+00  -0.8270532471E-03
   0.2164179090E+00  -0.4701492490E+00  -0.2028499238E-03  -0.1425646472E-02   0.0000000000E+00   0.7266460541E-03
   0.2313432840E+00  -0.4701492490E+00  -0.2739380030E-02   0.4745665977E-03   0.0000000000E+00   0.2244075783E-02
   0.2462686600E+00  -0.4701492490E+00  -0.5677676792E-02   0.3682647739E-02   0.0000000000E+00   0.3649495862E-02
   0.2611940210E+00  -0.4701492490E+00  -0.8140578284E-02   0.5831001352E-02   0.0000000000E+00   0.4872755586E-02
   0.2761194110E+00  -0.4701492490E+00  -0.9555052289E-02   0.5740986836E-02   0.0000000000E+00   0.5852800976E-02
   0.2910447720E+00  -0.4701492490E+00  -0.1006130449E-01   0.4564860593E-02   0.0000000000E+00   0.6540710808E-02
   0.3059701620E+00  -0.4701492490E+00  -0.1012926701E-01   0.4151047419E-02   0.0000000000E+00   0.6902151668E-02
   0.3208955230E+00  -0.4701492490E+00  -0.9932361170E-02   0.4752300782E-02   0.0000000000E+00   0.6919081403E-02
   0.3358208840E+00  -0.4701492490E+00  -0.9257370923E-02   0.4913821313E-02   0.0000000000E+00   0.6590656020E-02
   0.3507462740E+00  -0.4701492490E+00  -0.7990858658E-02   0.3583281932E-02   0.0000000000E+00   0.5933266779E-02
   0.3656716350E+00  -0.4701492490E+00  -0.6467854799E-02   0.1680380449E-02   0.0000000000E+00   0.4979728780E-02
   0.3805970250E+00  -0.4701492490E+00  -0.5153562367E-02   0.1048637489E-02   0.0000000000E+00   0.3777632873E-02
   0.3955223860E+00  -0.4701492490E+00  -0.4020792783E-02   0.2040026581E-02   0.0000000000E+00   0.2386984446E-02
   0.4104477470E+00  -0.4701492490E+00  -0.2449199628E-02   0.2798685125E-02   0.0000000000E+00   0.8771934263E-03
   0.4253731370E+00  -0.4701492490E+00   0.1119879849E-03   0.1300251195E-02   0.0000000000E+00  -0.6763843410E-03
   0.4402984980E+00  -0.4701492490E+00   0.3421584754E-02  -0.2204387900E-02   0.0000000000E+00  -0.2196198442E-02
   0.4552238880E+00  -0.4701492490E+00   0.6508871567E-02  -0.5289767316E-02   0.0000000000E+00  -0.3606395321E-02
   0.4701492490E+00  -0.4701492490E+00   0.8493724858E-02  -0.5945471106E-02   0.0000000000E+00  -0.4836581753E-02
   0.4850746390E+00  -0.4701492490E+00   0.9280017580E-02  -0.4630664201E-02   0.0000000000E+00  -0.5825359429E-02
   0.5000000000E+00  -0.4701492490E+00   0.9411456465E-02  -0.3449435998E-02   0.0000000000E+00  -0.6523371233E-02
  -0.4850746390E+00  -0.4552238880E+00  -0.7238500004E-02   0.4458814634E-02   0.0000000000E+00   0.4343677015E-02
  -0.5000000000E+00  -0.4552238880E+00  -0.7381175816E-02   0.3598608854E-02   0.0000000000E+00   0.4864149248E-02
  -0.4701492490E+00  -0.4552238880E+00  -0.6508871567E-02   0.5289767316E-02   0.0000000000E+00   0.3606395321E-02
  -0.4552238880E+00  -0.4552238880E+00  -0.4790976035E-02   0.4397254274E-02   0.0000000000E+00   0.2689107282E-02
  -0.4402984980E+00  -0.4552238880E+00  -0.2222950929E-02   0.1509904242E-02   0.0000000000E+00   0.1637594522E-02
  -0.4253731370E+00  -0.4552238880E+00   0.4249674412E-03  -0.1591324435E-02   0.0000000000E+00   0.5043457234E-03
  -0.4104477470E+00  -0.4552238880E+00   0.2352953881E-02  -0.2864293203E-02   0.0000000000E+00  -0.6540789405E-03
  -0.3955223860E+00  -0.4552238880E+00   0.3413025708E-02  -0.2180391559E-02   0.0000000000E+00  -0.1779854033E-02
  -0.3805970250E+00  -0.4552238880E+00   0.4128324340E-02  -0.1336070240E-02   0.0000000000E+00  -0.2816790497E-02
  -0.3656716350E+00  -0.4552238880E+00   0.5051869122E-02  -0.1920698390E-02   0.0000000000E+00  -0.3713132847E-02
  -0.3507462740E+00  -0.4552238880E+00   0.6199381629E-02  -0.3588900954E-02   0.0000000000E+00  -0.4424138089E-02
  -0.3358208840E+00  -0.4552238880E+00   0.7151046676E-02  -0.4716790884E-02   0.0000000000E+00  -0.4914320123E-02
  -0.3208955230E+00  -0.4552238880E+00   0.7600607824E-02  -0.4493545707E-02   0.0000000000E+00  -0.5159210383E-02
  -0.3059701620E+00  -0.4552238880E+00   0.7637311142E-02  -0.3815238332E-02   0.0000000000E+00  -0.5146586733E-02
  -0.2910447720E+00  -0.4552238880E+00   0.7451793516E-02  -0.3934483765E-02   0.0000000000E+00  -0.4877078495E-02
  -0.2761194110E+00  -0.4552238880E+00   0.6920830843E-02  -0.4661077807E-02   0.0000000000E+00  -0.4364138794E-02
  -0.2611940210E+00  -0.4552238880E+00   0.5679493755E-02  -0.4465647647E-02   0.0000000000E+00  -0.3633368326E-02
  -0.2462686600E+00  -0.4552238880E+00   0.3643607737E-02  -0.2428320500E-02   0.0000000000E+00  -0.2721245184E-02
  -0.2313432840E+00  -0.4552238880E+00   0.1320893712E-02   0.3946700584E-03   0.0000000000E+00  -0.1673294244E-02
  -0.2164179090E+00  -0.4552238880E+00  -0.5489906464E-03   0.1973462836E-02   0.0000000000E+00  -0.5418233503E-03
  -0.2014925330E+00  -0.4552238880E+00  -0.1678233267E-02   0.1567669138E-02   0.0000000000E+00   0.6166919352E-03
  -0.1865671580E+00  -0.4552238880E+00  -0.2465604176E-02   0.5514524771E-03   0.0000000000E+00   0.1744425873E-02
  -0.1716417970E+00  -0.4552238880E+00  -0.3504770671E-02   0.7969923604E-03   0.0000000000E+00   0.2785088443E-02
  -0.1567164210E+00  -0.4552238880E+00  -0.4923976129E-02   0.2540658087E-02   0.0000000000E+00   0.3686738503E-02
  -0.1417910460E+00  -0.4552238880E+00  -0.6290296147E-02   0.4247330862E-02   0.0000000000E+00   0.4404370372E-02
  -0.1268656700E+00  -0.4552238880E+00  -0.7127203062E-02   0.4538685496E-02   0.0000000000E+00   0.4902164602E-02
  -0.1119403020E+00  -0.4552238880E+00  -0.7387019639E-02   0.3775543371E-02   0.0000000000E+00   0.5155274402E-02
  -0.9701492640E-01  -0.4552238880E+00  -0.7335583997E-02   0.3398051145E-02   0.0000000000E+00   0.5151066441E-02
  -0.8208955080E-01  -0.4552238880E+00  -0.7070072096E-02   0.3948530012E-02   0.0000000000E+00   0.4889750560E-02
  -0.6716418270E-01  -0.4552238880E+00  -0.6340455367E-02   0.4321350525E-02   0.0000000000E+00   0.4384370270E-02
  -0.5223880710E-01  -0.4552238880E+00  -0.4928296517E-02   0.3209917681E-02   0.0000000000E+00   0.3660150379E-02
  -0.3731343150E-01  -0.4552238880E+00  -0.3090138836E-02   0.9284154361E-03   0.0000000000E+00   0.2753239456E-02
  -0.2238805960E-01  -0.4552238880E+00  -0.1447695197E-02  -0.7374370398E-03   0.0000000000E+00   0.1708904899E-02
  -0.7462686390E-02  -0.4552238880E+00  -0.3802820172E-03  -0.5748595733E-03   0.0000000000E+00   0.5792728025E-03
   0.7462686390E-02  -0.4552238880E+00   0.3802820168E-03   0.5748595738E-03   0.0000000000E+00  -0.5792728025E-03
   0.2238805960E-01  -0.4552238880E+00   0.1447695197E-02   0.7374370402E-03   0.0000000000E+00  -0.1708904899E-02
   0.3731343150E-01  -0.4552238880E+00   0.3090138836E-02  -0.9284154360E-03   0.0000000000E+00  -0.2753239456E-02
   0.5223880710E-01  -0.4552238880E+00   0.4928296517E-02  -0.3209917681E-02   0.0000000000E+00  -0.3660150379E-02
   0.6716418270E-01  -0.4552238880E+00   0.6340455367E-02  -0.4321350525E-02   0.0000000000E+00  -0.4384370270E-02
   0.8208955080E-01  -0.4552238880E+00   0.7070072096E-02  -0.3948530012E-02   0.0000000000E+00  -0.4889750560E-02
   0.9701492640E-01  -0.4552238880E+00   0.7335583996E-02  -0.3398051145E-02   0.0000000000E+00  -0.5151066441E-02
   0.1119403020E+00  -0.4552238880E+00   0.7387019639E-02  -0.3775543371E-02   0.0000000000E+00  -0.5155274402E-02
   0.1268656700E+00  -0.4552238880E+00   0.7127203062E-02  -0.4538685496E-02   0.0000000000E+00  -0.4902164602E-02
   0.1417910460E+00  -0.4552238880E+00   0.6290296147E-02  -0.4247330862E-02   0.0000000000E+00  -0.4404370372E-02
   0.1567164210E+00  -0.4552238880E+00   0.4923976129E-02  -0.2540658087E-02   0.0000000000E+00  -0.3686738503E-02
   0.1716417970E+00  -0.4552238880E+00   0.3504770671E-02  -0.7969923606E-03   0.0000000000E+00  -0.2785088443E-02
   0.1865671580E+00  -0.4552238880E+00   0.2465604176E-02  -0.5514524774E-03   0.0000000000E+00  -0.1744425873E-02
   0.2014925330E+00  -0.4552238880E+00   0.1678233267E-02  -0.1567669138E-02   0.0000000000E+00  -0.6166919352E-03
   0.2164179090E+00  -0.4552238880E+00   0.5489906466E-03  -0.1973462837E-02   0.0000000000E+00   0.5418233503E-03
   0.2313432840E+00  -0.4552238880E+00  -0.1320893712E-02  -0.3946700584E-03   0.0000000000E+00   0.1673294244E-02
   0.2462686600E+00  -0.4552238880E+00  -0.3643607737E-02   0.2428320501E-02   0.0000000000E+00   0.2721245184E-02
   0.2611940210E+00  -0.4552238880E+00  -0.5679493756E-02   0.4465647648E-02   0.0000000000E+00   0.3633368326E-02
   0.2761194110E+00  -0.4552238880E+00  -0.6920830843E-02   0.4661077808E-02   0.0000000000E+00   0.4364138794E-02
   0.2910447720E+00  -0.4552238880E+00  -0.7451793517E-02   0.3934483766E-02   0.0000000000E+00   0.4877078495E-02
   0.3059701620E+00  -0.4552238880E+00  -0.7637311142E-02   0.3815238332E-02   0.0000000000E+00   0.5146586733E-02
   0.3208955230E+00  -0.4552238880E+00  -0.7600607824E-02   0.4493545708E-02   0.0000000000E+00   0.5159210383E-02