 VARIABLES = X,Y,Z,DU1,DU2,DU3,U1,U2,U3,S11,S22,S33,S12,S13,S23
 ZONE, T="0.1000D+01" F=FEPOINT, I= 4104 J= 3075 ET=BRICK
   0.6843403212E+00   0.9256967348E+00   0.2723080085E-04   0.6968879197E-02  -0.2068336238E-02   0.2723080085E-04   0.0000000000E+00   0.0000000000E+00   0.0000000000E+00   0.1529246243E+00  -0.1403867439E-02  -0.2684447826E-03  -0.3434295827E-01  -0.5172732587E-02   0.2807483642E-02
   0.4941850656E+00   0.1031084789E+01   0.1315644412E-03   0.6356453625E-02  -0.2468210637E-02   0.1315644412E-03   0.0000000000E+00   0.0000000000E+00   0.0000000000E+00   0.2009173758E+00   0.6977161196E-02  -0.3389595765E-02  -0.2880177655E-01  -0.5093789503E-02  -0.4794649357E-03
   0.4327648134E+00   0.9021450050E+00   0.1775802538E-03   0.6623074435E-02  -0.2511404993E-02   0.1775802538E-03   0.0000000000E+00   0.0000000000E+00   0.0000000000E+00   0.2362942245E+00   0.4286564523E-01   0.4779250182E-02  -0.7892258236E-01  -0.1332055567E-01   0.2679420111E-02
   0.5971909482E+00   0.8052305121E+00   0.4208418326E-04   0.7251056197E-02  -0.2216622858E-02   0.4208418326E-04   0.0000000000E+00   0.0000000000E+00   0.0000000000E+00   0.1316390870E+00   0.3772973462E-01   0.1119850597E-02  -0.6260032607E-01  -0.1166467303E-01   0.7076287193E-02
   0.6843979361E+00   0.9256687882E+00   0.1999356013E+00   0.7026494119E-02  -0.2096282819E-02  -0.6440173351E-04   0.0000000000E+00   0.0000000000E+00   0.0000000000E+00   0.1450769103E+00   0.7952670656E-02  -0.9058172722E-04  -0.3910825731E-01  -0.3721747470E-02   0.2312796573E-02
   0.4942499133E+00   0.1031095462E+01   0.1999992608E+00   0.6421301346E-02  -0.2457537941E-02  -0.7422245592E-06   0.0000000000E+00   0.0000000000E+00   0.0000000000E+00   0.2025330667E+00   0.1447705721E-01  -0.1841046214E-02  -0.3865426149E-01  -0.3774353820E-02   0.5111936898E-03
   0.4328317479E+00   0.9021624869E+00   0.2000209472E+00   0.6690008949E-02  -0.2493923100E-02   0.2094415094E-04   0.0000000000E+00   0.0000000000E+00   0.0000000000E+00   0.2431169148E+00   0.5177102476E-01   0.1144965324E-01  -0.8833718618E-01  -0.8253346860E-02   0.4110138377E-02
   0.5972500037E+00   0.8052049584E+00   0.1999429996E+00   0.7310111673E-02  -0.2242176581E-02  -0.5700336868E-04   0.0000000000E+00   0.0000000000E+00   0.0000000000E+00   0.1276117889E+00   0.4557240562E-01   0.2705524401E-02  -0.6674234923E-01  -0.7970668023E-02   0.5558479045E-02
   0.2798501922E+00   0.1095340897E+01   0.2203943594E-03   0.5745984237E-02  -0.2806612968E-02   0.2203943594E-03   0.0000000000E+00   0.0000000000E+00   0.0000000000E+00   0.2495460209E+00   0.1667852932E-01  -0.4094664869E-02  -0.1861655071E-01  -0.4922407815E-02  -0.3820121961E-02
   0.2518731394E+00   0.9665383275E+00   0.2865508126E-03   0.5935404373E-02  -0.2747279476E-02   0.2865508126E-03   0.0000000000E+00   0.0000000000E+00   0.0000000000E+00   0.3355855050E+00   0.3647061762E-01   0.8308440396E-02  -0.6187319253E-01  -0.1034374533E-01  -0.2781891221E-02
   0.2798985287E+00   0.1095392099E+01   0.2000518324E+00   0.5794320723E-02  -0.2755411187E-02   0.5182939303E-04   0.0000000000E+00   0.0000000000E+00   0.0000000000E+00   0.2629657749E+00   0.1918732515E-01  -0.2774558586E-03  -0.2825718848E-01  -0.3243138837E-02  -0.8697513612E-03
   0.2519234701E+00   0.9665991407E+00   0.2000824380E+00   0.5985735092E-02  -0.2686466269E-02   0.8243500128E-04   0.0000000000E+00   0.0000000000E+00   0.0000000000E+00   0.3550740460E+00   0.4166286964E-01   0.1946415479E-01  -0.7115859329E-01  -0.6152578191E-02   0.1746412414E-02
   0.6265159802E-01   0.1127172739E+01   0.2618068949E-03   0.5151868917E-02  -0.2974481468E-02   0.2618068949E-03   0.0000000000E+00   0.0000000000E+00   0.0000000000E+00   0.2727729389E+00   0.2007830314E-01  -0.4720565877E-02  -0.5120221536E-02  -0.1046837052E-02  -0.5863957960E-02
   0.6502024249E-01   0.9953470324E+00   0.3419788002E-03   0.5224780892E-02  -0.2863636565E-02   0.3419788002E-03   0.0000000000E+00   0.0000000000E+00   0.0000000000E+00   0.3934429875E+00   0.2956405908E-01   0.1062120289E-01  -0.1466841775E-01  -0.3116435130E-02  -0.6364804966E-02
   0.6266233564E-01   0.1127245921E+01   0.2000761182E+00   0.5162606538E-02  -0.2901299498E-02   0.7611523285E-04   0.0000000000E+00   0.0000000000E+00   0.0000000000E+00   0.2941302684E+00   0.1960259765E-01   0.7342478943E-03  -0.7498566132E-02  -0.6715970316E-03  -0.1668417503E-02
   0.6503332452E-01   0.9954322007E+00   0.2001128367E+00   0.5237862916E-02  -0.2778468285E-02   0.1128336967E-03   0.0000000000E+00   0.0000000000E+00   0.0000000000E+00   0.4214765809E+00   0.3162844805E-01   0.2477568068E-01  -0.1736484632E-01  -0.1640888703E-02   0.3192026194E-03
  -0.1601361904E+00   0.1125195526E+01   0.2415790210E-03   0.4562782637E-02  -0.2919893956E-02   0.2415790210E-03   0.0000000000E+00   0.0000000000E+00   0.0000000000E+00   0.2620518990E+00   0.1716758465E-01  -0.4405884163E-02   0.9132205993E-02   0.3261061572E-02  -0.5238121046E-02
  -0.1263485072E+00   0.9885717527E+00   0.3276436600E-03   0.4495981833E-02  -0.2831171324E-02   0.3276436600E-03   0.0000000000E+00   0.0000000000E+00   0.0000000000E+00   0.3783318807E+00   0.3329992537E-01   0.1029677003E-01   0.4149859345E-01   0.6796552927E-02  -0.5101017129E-02
  -0.1601679917E+00   0.1125260258E+01   0.2000645602E+00   0.4530981327E-02  -0.2855162309E-02   0.6455717381E-04   0.0000000000E+00   0.0000000000E+00   0.0000000000E+00   0.2799046736E+00   0.1749088196E-01   0.2935816218E-04   0.1561450062E-01   0.2146861182E-02  -0.1489749824E-02
  -0.1263792844E+00   0.9886503800E+00   0.2001046122E+00   0.4465204599E-02  -0.2752544022E-02   0.1046091766E-03   0.0000000000E+00   0.0000000000E+00   0.0000000000E+00   0.4038083019E+00   0.3699002838E-01   0.2407332342E-01   0.4802823986E-01   0.3785139572E-02   0.7431454327E-03
  -0.3868978431E+00   0.1089755490E+01   0.1658911197E-03   0.3966945893E-02  -0.2647560230E-02   0.1658911197E-03   0.0000000000E+00   0.0000000000E+00   0.0000000000E+00   0.2215270924E+00   0.9508223508E-02  -0.3030828307E-02   0.1575905628E-01   0.5594222999E-02  -0.3557433317E-02
  -0.3243945618E+00   0.9419827258E+00   0.2396031665E-03   0.3747872245E-02  -0.2645513202E-02   0.2396031665E-03   0.0000000000E+00   0.0000000000E+00   0.0000000000E+00   0.2850391623E+00   0.3652765173E-01   0.4230860477E-02   0.7084523133E-01   0.1099094824E-01   0.3698650875E-03
  -0.3869560249E+00   0.1089786517E+01   0.2000203246E+00   0.3908764116E-02  -0.2616532548E-02   0.2032158121E-04   0.0000000000E+00   0.0000000000E+00   0.0000000000E+00   0.2258205865E+00   0.1224306200E-01  -0.2252364482E-02   0.2645651179E-01   0.3781034633E-02  -0.1047939358E-02
  -0.3244561645E+00   0.9420239974E+00   0.2000567298E+00   0.3686269536E-02  -0.2604241561E-02   0.5672676604E-04   0.0000000000E+00   0.0000000000E+00   0.0000000000E+00   0.2985808187E+00   0.4627484632E-01   0.1362046997E-01   0.8089587624E-01   0.7050013939E-02   0.2789886328E-02
   0.7938262102E+00   0.1069272081E+01   0.1417022176E-04   0.6833600219E-02  -0.1969539352E-02   0.1417022176E-04   0.0000000000E+00   0.0000000000E+00   0.0000000000E+00   0.1673714522E+00  -0.2387505987E-01  -0.7891805093E-04  -0.6792325757E-02  -0.1744679069E-02   0.1003682241E-02
   0.5197921869E+00   0.1178214434E+01   0.1073693732E-03   0.6145703851E-02  -0.2510186151E-02   0.1073693732E-03   0.0000000000E+00   0.0000000000E+00   0.0000000000E+00   0.2049043781E+00   0.3689989178E-02   0.9163524103E-03   0.1263407728E-01  -0.3661855900E-02  -0.1753986006E-02
   0.7938665743E+00   0.1069251412E+01   0.1999277445E+00   0.6873964314E-02  -0.1990207828E-02  -0.7225847324E-04   0.0000000000E+00   0.0000000000E+00   0.0000000000E+00   0.1602752584E+00  -0.1642619247E-01  -0.2326477082E-03  -0.1113080028E-01  -0.9045810037E-03   0.4058868416E-03
   0.5198401093E+00   0.1178231236E+01   0.1999838560E+00   0.6193626345E-02  -0.2493383699E-02  -0.1614696690E-04   0.0000000000E+00   0.0000000000E+00   0.0000000000E+00   0.2040429123E+00   0.9409233054E-02   0.2085051971E-02   0.2684750412E-02  -0.2319178086E-02  -0.1020588676E-02
   0.2845094385E+00   0.1238411569E+01   0.1670833605E-03   0.5594510537E-02  -0.2870181156E-02   0.1670833605E-03   0.0000000000E+00   0.0000000000E+00   0.0000000000E+00   0.2174185712E+00   0.2492310817E-01  -0.1322018112E-03   0.1133822034E-01  -0.2243843402E-02  -0.2908087686E-02
   0.2845431603E+00   0.1238459940E+01   0.2000207345E+00   0.5628232305E-02  -0.2821809973E-02   0.2073149407E-04   0.0000000000E+00   0.0000000000E+00   0.0000000000E+00   0.2268987444E+00   0.2713946156E-01   0.2353076676E-02   0.3035988696E-02  -0.1620854712E-02  -0.1599491882E-02
   0.6235359031E-01   0.1269018111E+01   0.1885976402E-03   0.5118520707E-02  -0.3032989319E-02   0.1885976402E-03   0.0000000000E+00   0.0000000000E+00   0.0000000000E+00   0.2183472248E+00   0.3615362518E-01  -0.4101641626E-03   0.3850682836E-02  -0.4292392122E-03  -0.4158844507E-02
   0.6236047278E-01   0.1269081397E+01   0.2000341797E+00   0.5125403177E-02  -0.2969703176E-02   0.3417672686E-04   0.0000000000E+00   0.0000000000E+00   0.0000000000E+00   0.2320941938E+00   0.3539716517E-01   0.2136878995E-02   0.1983164083E-02  -0.2912427980E-03  -0.2283499167E-02
  -0.1589534364E+00   0.1275705570E+01   0.1727229363E-03   0.4667661595E-02  -0.2984050214E-02   0.1727229363E-03   0.0000000000E+00   0.0000000000E+00   0.0000000000E+00   0.2124648618E+00   0.3170575875E-01  -0.3363822824E-03  -0.7828776243E-02   0.1552707185E-02  -0.3458744152E-02
  -0.1589739734E+00   0.1275762715E+01   0.2000246782E+00   0.4647124627E-02  -0.2926904539E-02   0.2467521512E-04   0.0000000000E+00   0.0000000000E+00   0.0000000000E+00   0.2238531431E+00   0.3184416344E-01   0.1812750125E-02  -0.2188285869E-02   0.1051447157E-02  -0.1932919852E-02
  -0.3850200172E+00   0.1262126820E+01   0.1260408547E-03   0.4207670801E-02  -0.2737859936E-02   0.1260408547E-03   0.0000000000E+00   0.0000000000E+00   0.0000000000E+00   0.2029038226E+00   0.1259726724E-01   0.9553562715E-04  -0.1597123042E-01   0.2351299309E-02  -0.1027077792E-02
  -0.3850570885E+00   0.1262161043E+01   0.1999962919E+00   0.4170599504E-02  -0.2703637153E-02  -0.3711122264E-05   0.0000000000E+00   0.0000000000E+00   0.0000000000E+00   0.2058253160E+00   0.1544978596E-01   0.8641503256E-03  -0.6704279955E-02   0.1430439660E-02  -0.6097738038E-03
  -0.1706113360E+00   0.1443332790E+01   0.1056529943E-03   0.4706651975E-02  -0.3026370284E-02   0.1056529943E-03   0.0000000000E+00   0.0000000000E+00   0.0000000000E+00   0.1754194524E+00   0.2353803788E-01  -0.8153764264E-03  -0.1415618941E-01   0.7098313640E-03  -0.2807093163E-02
  -0.3928249401E+00   0.1441707725E+01   0.8005945325E-04   0.4328794895E-02  -0.2808215362E-02   0.8005945325E-04   0.0000000000E+00   0.0000000000E+00   0.0000000000E+00   0.1743135109E+00   0.8992171754E-02  -0.6426373616E-03  -0.2511615469E-01   0.1069240870E-02  -0.1918711160E-02
  -0.1706230946E+00   0.1443383684E+01   0.1999839869E+00   0.4694893404E-02  -0.2975475776E-02  -0.1601611885E-04   0.0000000000E+00   0.0000000000E+00   0.0000000000E+00   0.1808957378E+00   0.2271580294E-01  -0.4149579940E-03  -0.1032489907E-01   0.4097548125E-03  -0.1278611069E-02
  -0.3928449235E+00   0.1441742650E+01   0.1999682621E+00   0.4308811468E-02  -0.2773289977E-02  -0.3174085013E-04   0.0000000000E+00   0.0000000000E+00   0.0000000000E+00   0.1764149863E+00   0.1002477901E-01  -0.4998389597E-03  -0.1878190378E-01   0.4753850362E-03  -0.7862949335E-03
  -0.1839013931E+00   0.1622534401E+01   0.4467108754E-04   0.4731109899E-02  -0.3070228941E-02   0.4467108754E-04   0.0000000000E+00   0.0000000000E+00   0.0000000000E+00   0.1482040429E+00   0.1398920028E-01  -0.2919570451E-03  -0.1490922633E-01   0.1738157469E-03  -0.2035105203E-02
  -0.4049899006E+00   0.1624626292E+01   0.3577881447E-04   0.4407999395E-02  -0.2868518419E-02   0.3577881447E-04   0.0000000000E+00   0.0000000000E+00   0.0000000000E+00   0.1515620680E+00   0.5511182552E-02  -0.1823483721E-03  -0.2576207311E-01   0.2093851244E-03  -0.1368796414E-02
  -0.1839058085E+00   0.1622581276E+01   0.1999464647E+00   0.4726694543E-02  -0.3023354246E-02  -0.5353830938E-04   0.0000000000E+00   0.0000000000E+00   0.0000000000E+00   0.1498112836E+00   0.1320528069E-01  -0.5092641725E-03  -0.1176287657E-01   0.5181027168E-04  -0.7396166757E-03
  -0.4049967457E+00   0.1624660613E+01   0.1999409298E+00   0.4401154311E-02  -0.2834197444E-02  -0.5907316099E-04   0.0000000000E+00   0.0000000000E+00   0.0000000000E+00   0.1518991156E+00   0.5668768471E-02  -0.3989490659E-03  -0.2044275833E-01  -0.8414652165E-05  -0.4437732071E-03
  -0.1935175695E+00   0.1808265855E+01  -0.1249905706E-04   0.4768114512E-02  -0.3121684911E-02  -0.1249905706E-04   0.0000000000E+00   0.0000000000E+00   0.0000000000E+00   0.1212156186E+00   0.6829134489E-02   0.6207705508E-03  -0.9811906803E-02  -0.2732402676E-03  -0.1868481255E-02
  -0.4143839639E+00   0.1810029517E+01  -0.6118345389E-05   0.4497661067E-02  -0.2928483058E-02  -0.6118345389E-05   0.0000000000E+00   0.0000000000E+00   0.0000000000E+00   0.1287850568E+00   0.3066160616E-02   0.3829097439E-03  -0.1673398043E-01  -0.5451989400E-03  -0.1296905602E-02
  -0.1935156687E+00   0.1808311433E+01   0.1999117786E+00   0.4770015337E-02  -0.3076106833E-02  -0.8822443248E-04   0.0000000000E+00   0.0000000000E+00   0.0000000000E+00   0.1199130485E+00   0.6412961195E-02  -0.1049476741E-03  -0.7610653636E-02  -0.3249800676E-03  -0.2020904654E-03
  -0.4143799934E+00   0.1810063623E+01   0.1999154324E+00   0.4501631628E-02  -0.2894376681E-02  -0.8457063461E-04   0.0000000000E+00   0.0000000000E+00   0.0000000000E+00   0.1278095693E+00   0.3014057129E-02  -0.8643317576E-04  -0.1294856680E-01  -0.6235912876E-03  -0.9730996405E-04
  -0.2012514736E+00   0.1996830206E+01  -0.6964505860E-04   0.4840049362E-02  -0.3169794264E-02  -0.6964505860E-04   0.0000000000E+00   0.0000000000E+00   0.0000000000E+00   0.8023843594E-01  -0.3618916995E-02  -0.2175650083E-02  -0.4973482067E-02  -0.1801420210E-02  -0.1755453681E-02
  -0.4219973424E+00   0.1997017501E+01  -0.4744991361E-04   0.4640426634E-02  -0.2982498891E-02  -0.4744991361E-04   0.0000000000E+00   0.0000000000E+00   0.0000000000E+00   0.9923887237E-01  -0.2893247925E-02  -0.1411112678E-02  -0.7849388399E-02  -0.3079525085E-02  -0.1230963081E-02
  -0.2012481209E+00   0.1996876711E+01   0.1998793064E+00   0.4843402051E-02  -0.3123289145E-02  -0.1206966394E-03   0.0000000000E+00   0.0000000000E+00   0.0000000000E+00   0.7805924947E-01  -0.3950586326E-02  -0.4021760775E-02  -0.3469421391E-02  -0.1430993661E-02   0.2154873580E-03
  -0.4219911386E+00   0.1997052105E+01   0.1998915315E+00   0.4646630377E-02  -0.2947894667E-02  -0.1084715310E-03   0.0000000000E+00   0.0000000000E+00   0.0000000000E+00   0.9786907522E-01  -0.2999360177E-02  -0.2441911118E-02  -0.5322521652E-02  -0.2486641876E-02   0.1472964001E-03
   0.5149849266E-01   0.1434576785E+01   0.1168249969E-03   0.5078991360E-02  -0.3079374561E-02   0.1168249969E-03   0.0000000000E+00   0.0000000000E+00   0.0000000000E+00   0.1773364478E+00   0.2825348692E-01  -0.9259842202E-03   0.3236221352E-02  -0.1508748154E-03  -0.3182591957E-02
   0.5150155197E-01   0.1434632624E+01   0.1999908812E+00   0.5082050667E-02  -0.3023536335E-02  -0.9121762272E-05   0.0000000000E+00   0.0000000000E+00   0.0000000000E+00   0.1844144079E+00   0.2686160378E-01  -0.3314034468E-03   0.2285670943E-02  -0.5495813644E-04  -0.1512329836E-02
   0.3863450726E-01   0.1615246357E+01   0.5015110124E-04   0.5048090860E-02  -0.3126803496E-02   0.5015110124E-04   0.0000000000E+00   0.0000000000E+00   0.0000000000E+00   0.1481551692E+00   0.1733769260E-01  -0.3343843983E-03   0.2417289253E-02  -0.1343893183E-04  -0.2265345331E-02
   0.3863529524E-01   0.1615297274E+01   0.1999498477E+00   0.5048878843E-02  -0.3075885614E-02  -0.5015528226E-04   0.0000000000E+00   0.0000000000E+00   0.0000000000E+00   0.1504260178E+00   0.1613705808E-01  -0.5261646845E-03   0.1864488413E-02   0.8004493898E-05  -0.8821301904E-03
   0.2889899997E-01   0.1804263104E+01  -0.1307932016E-04   0.5027593073E-02  -0.3180756491E-02  -0.1307932016E-04   0.0000000000E+00   0.0000000000E+00   0.0000000000E+00   0.1193814995E+00   0.8584690470E-02   0.7176904947E-03   0.1230511536E-02   0.5682987592E-04  -0.2078475037E-02
   0.2889877464E-01   0.1804312432E+01   0.1999114439E+00   0.5027367739E-02  -0.3131427882E-02  -0.8855905721E-04   0.0000000000E+00   0.0000000000E+00   0.0000000000E+00   0.1180807118E+00   0.8017097419E-02  -0.4592794470E-04   0.9485316820E-03   0.5168186650E-04  -0.2568897249E-03
   0.2137226700E-01   0.1996768934E+01  -0.7717715676E-04   0.5012237400E-02  -0.3231066312E-02  -0.7717715676E-04   0.0000000000E+00   0.0000000000E+00   0.0000000000E+00   0.7358238930E-01  -0.3787947058E-02  -0.2441546035E-02  -0.6916639638E-04   0.1395612423E-03  -0.1934081083E-02
   0.2137198117E-01   0.1996819505E+01   0.1998752059E+00   0.5011951573E-02  -0.3180494587E-02  -0.1247970956E-03   0.0000000000E+00   0.0000000000E+00   0.0000000000E+00   0.7108434218E-01  -0.4272999325E-02  -0.4626748316E-02  -0.1977815222E-03   0.1144782189E-03   0.2455747384E-03
   0.2761590800E+00   0.1411836268E+01   0.1075216160E-03   0.5469324004E-02  -0.2942921839E-02   0.1075216160E-03   0.0000000000E+00   0.0000000000E+00   0.0000000000E+00   0.1797312927E+00   0.1965991132E-01  -0.1000457949E-02   0.1858305881E-01  -0.1105010134E-02  -0.2812903517E-02
   0.2761776267E+00   0.1411882483E+01   0.1999851795E+00   0.5487870666E-02  -0.2896707111E-02  -0.1482347297E-04   0.0000000000E+00   0.0000000000E+00   0.0000000000E+00   0.1849109609E+00   0.1962470449E-01  -0.5212929259E-03   0.1300271990E-01  -0.6171634466E-03  -0.1308629661E-02
   0.2630371132E+00   0.1600864354E+01   0.4930883023E-04   0.5375770160E-02  -0.3015576222E-02   0.4930883023E-04   0.0000000000E+00   0.0000000000E+00   0.0000000000E+00   0.1521674866E+00   0.1317769169E-01  -0.2636670748E-03   0.1929163623E-01  -0.2739355039E-03  -0.1844704647E-02
   0.2630437332E+00   0.1600908464E+01   0.1999492638E+00   0.5382390220E-02  -0.2971466317E-02  -0.5073919258E-04   0.0000000000E+00   0.0000000000E+00   0.0000000000E+00   0.1537498676E+00   0.1250203383E-01  -0.4620206750E-03   0.1513901017E-01  -0.9787747903E-04  -0.7197853689E-03
   0.2523740599E+00   0.1797389405E+01  -0.7971685588E-05   0.5294061895E-02  -0.3086664730E-02  -0.7971685588E-05   0.0000000000E+00   0.0000000000E+00   0.0000000000E+00   0.1243684006E+00   0.7000859900E-02   0.6128011369E-03   0.1230232816E-01   0.3086310583E-03  -0.1807906437E-02
   0.2523720329E+00   0.1797433046E+01   0.1999143428E+00   0.5292034854E-02  -0.3043023848E-02  -0.8566021125E-04   0.0000000000E+00   0.0000000000E+00   0.0000000000E+00   0.1232989738E+00   0.6638480766E-02   0.4440378261E-04   0.9573462002E-02   0.3703648988E-03  -0.2150882893E-03
   0.2442622643E+00   0.1996850984E+01  -0.6722679700E-04   0.5187274270E-02  -0.3149016128E-02  -0.6722679700E-04   0.0000000000E+00   0.0000000000E+00   0.0000000000E+00   0.8251930875E-01  -0.3440247597E-02  -0.2007600634E-02   0.5058613516E-02   0.2012361628E-02  -0.1662844432E-02
   0.2442583221E+00   0.1996896042E+01   0.1998806241E+00   0.5183332100E-02  -0.3103958100E-02  -0.1193788832E-03   0.0000000000E+00   0.0000000000E+00   0.0000000000E+00   0.8032888853E-01  -0.3909424130E-02  -0.3839652183E-02   0.3278351437E-02   0.1609553256E-02   0.2282724542E-03
   0.5088132546E+00   0.1374945472E+01   0.7764948043E-04   0.5903951615E-02  -0.2635768482E-02   0.7764948043E-04   0.0000000000E+00   0.0000000000E+00   0.0000000000E+00   0.1796464351E+00   0.1684318889E-02  -0.7112279581E-03   0.2311442583E-01  -0.1675811376E-02  -0.1245161686E-02
   0.5088405958E+00   0.1374970551E+01   0.1999668887E+00   0.5931292817E-02  -0.2610688635E-02  -0.3311434425E-04   0.0000000000E+00   0.0000000000E+00   0.0000000000E+00   0.1796656657E+00   0.3645193501E-02  -0.9315691381E-03   0.1580606445E-01  -0.7490153509E-03  -0.4248961488E-03
   0.4909784072E+00   0.1580476507E+01   0.4139507296E-04   0.5732047181E-02  -0.2757562740E-02   0.4139507296E-04   0.0000000000E+00   0.0000000000E+00   0.0000000000E+00   0.1578547561E+00   0.3089745031E-02  -0.1148710319E-03   0.2866105597E-01  -0.3659552454E-03  -0.1114277440E-02
   0.4909885148E+00   0.1580505384E+01   0.1999443485E+00   0.5742154815E-02  -0.2728686322E-02  -0.5565451996E-04   0.0000000000E+00   0.0000000000E+00   0.0000000000E+00   0.1579516575E+00   0.3620005689E-02  -0.3064456579E-03   0.2269672750E-01  -0.7937091411E-04  -0.4332849912E-03
   0.4769703345E+00   0.1788327180E+01   0.7303216196E-06   0.5584706531E-02  -0.2860110127E-02   0.7303216196E-06   0.0000000000E+00   0.0000000000E+00   0.0000000000E+00   0.1337656721E+00   0.2828924252E-02   0.3383911574E-03   0.1883683940E-01   0.4096095546E-03  -0.1156810220E-02
   0.4769669663E+00   0.1788357819E+01   0.1999193913E+00   0.5581338322E-02  -0.2829470816E-02  -0.8061171907E-04   0.0000000000E+00   0.0000000000E+00   0.0000000000E+00   0.1330195710E+00   0.2850555271E-02   0.2795418371E-04   0.1469005327E-01   0.5362878059E-03  -0.8773865348E-04
   0.4667513277E+00   0.1997056174E+01  -0.4317168119E-04   0.5395551744E-02  -0.2943825741E-02  -0.4317168119E-04   0.0000000000E+00   0.0000000000E+00   0.0000000000E+00   0.1031070869E+00  -0.2637304787E-02  -0.1161729949E-02   0.8399237398E-02   0.3134094749E-02  -0.1054544237E-02
   0.4667445280E+00   0.1997088282E+01   0.1998938939E+00   0.5388751979E-02  -0.2911717515E-02  -0.1061090883E-03   0.0000000000E+00   0.0000000000E+00   0.0000000000E+00   0.1017900763E+00  -0.2928085353E-02  -0.2142183664E-02   0.5574908228E-02   0.2550522584E-02   0.1783290335E-03
   0.7511371528E+00   0.1330241031E+01   0.3737629910E-04   0.6380573813E-02  -0.2227599174E-02   0.3737629910E-04   0.0000000000E+00   0.0000000000E+00   0.0000000000E+00   0.1718427739E+00  -0.1792997241E-01  -0.9240684072E-03   0.1660961212E-01  -0.6378916811E-03  -0.1670079890E-04
   0.7511620602E+00   0.1330242395E+01   0.1999426233E+00   0.6405481230E-02  -0.2226234750E-02  -0.5737970506E-04   0.0000000000E+00   0.0000000000E+00   0.0000000000E+00   0.1698516815E+00  -0.1336407777E-01  -0.9919054325E-03   0.1091032386E-01  -0.1530577575E-03   0.1585427787E-04
   0.7188143331E+00   0.1558476678E+01   0.2938829952E-04   0.6111761106E-02  -0.2418052229E-02   0.2938829952E-04   0.0000000000E+00   0.0000000000E+00   0.0000000000E+00   0.1601278887E+00  -0.7400904879E-02  -0.1981391518E-03   0.2728211401E-01  -0.2586194839E-03  -0.4453533181E-03
   0.7188242643E+00   0.1558488110E+01   0.1999371016E+00   0.6121692322E-02  -0.2406620415E-02  -0.6290137017E-04   0.0000000000E+00   0.0000000000E+00   0.0000000000E+00   0.1590341753E+00  -0.5854475886E-02  -0.4481241337E-03   0.2184592662E-01   0.2891872170E-04  -0.2559685056E-03
   0.6977593562E+00   0.1778480640E+01   0.1035167654E-04   0.5899038209E-02  -0.2558359859E-02   0.1035167654E-04   0.0000000000E+00   0.0000000000E+00   0.0000000000E+00   0.1438132910E+00  -0.1603785718E-02   0.5775498153E-04   0.1953050469E-01   0.4774438135E-03  -0.4131816514E-03
   0.6977552722E+00   0.1778495893E+01   0.1999250820E+00   0.5894954155E-02  -0.2543106694E-02  -0.7492100449E-04   0.0000000000E+00   0.0000000000E+00   0.0000000000E+00   0.1436341114E+00  -0.1220065289E-02   0.2538731906E-04   0.1524097177E-01   0.5817828819E-03   0.2793907049E-04
   0.6876141014E+00   0.1997336821E+01  -0.1262775127E-04   0.5652863355E-02  -0.2663179249E-02  -0.1262775127E-04   0.0000000000E+00   0.0000000000E+00   0.0000000000E+00   0.1278183573E+00  -0.1766847922E-02  -0.3417514760E-03   0.9194785565E-02   0.3254733623E-02  -0.4230457414E-03
   0.6876059893E+00   0.1997353166E+01   0.1999110738E+00   0.5644751339E-02  -0.2646834229E-02  -0.8892915783E-04   0.0000000000E+00   0.0000000000E+00   0.0000000000E+00   0.1276694426E+00  -0.1778498198E-02  -0.3704166880E-03   0.6215003849E-02   0.2730064831E-02   0.9307911000E-04
   0.9205925548E+00   0.1773127222E+01   0.1900616385E-04   0.6236084787E-02  -0.2232168487E-02   0.1900616385E-04   0.0000000000E+00   0.0000000000E+00   0.0000000000E+00   0.1516075827E+00  -0.4312039890E-02  -0.1531015775E-03   0.1543139983E-01   0.3719184286E-03   0.1023623446E-03
   0.9082644749E+00   0.1997644892E+01   0.1671224917E-04   0.5960957874E-02  -0.2355107761E-02   0.1671224917E-04   0.0000000000E+00   0.0000000000E+00   0.0000000000E+00   0.1498542741E+00  -0.8736103390E-03   0.2143965753E-03   0.7596818918E-02   0.2670248938E-02   0.1368919528E-03
   0.9205885668E+00   0.1773128523E+01   0.1999302511E+00   0.6232096772E-02  -0.2230867339E-02  -0.6975188940E-04   0.0000000000E+00   0.0000000000E+00   0.0000000000E+00   0.1520163228E+00  -0.3775576720E-02   0.1867461321E-04   0.1200575071E-01   0.4594455318E-03   0.3272549823E-04
   0.9082569524E+00   0.1997646705E+01   0.1999279735E+00   0.5953435404E-02  -0.2353294883E-02  -0.7202946508E-04   0.0000000000E+00   0.0000000000E+00   0.0000000000E+00   0.1507934975E+00  -0.7011944240E-03   0.8747264839E-03   0.5092007538E-02   0.2306399944E-02   0.3805230140E-04
   0.1140932528E+01   0.1770832922E+01   0.2553199070E-04   0.6581507953E-02  -0.1929617706E-02   0.2553199070E-04   0.0000000000E+00   0.0000000000E+00   0.0000000000E+00   0.1562510916E+00  -0.5275203326E-02  -0.3285660891E-03   0.9090774161E-02   0.2163805974E-03   0.4399953302E-03
   0.1127815583E+01   0.1997939364E+01   0.3912034552E-04   0.6308052884E-02  -0.2060636238E-02   0.3912034552E-04   0.0000000000E+00   0.0000000000E+00   0.0000000000E+00   0.1655121537E+00   0.1891391921E-03   0.5700870545E-03   0.4965685810E-02   0.1747860164E-02   0.5107000191E-03
   0.1140929579E+01   0.1770824111E+01   0.1999341952E+00   0.6578559425E-02  -0.1938428520E-02  -0.6580776961E-04   0.0000000000E+00   0.0000000000E+00   0.0000000000E+00   0.1571111954E+00  -0.4831763448E-02  -0.8314395111E-04   0.6855128967E-02   0.2788614144E-03   0.3734388034E-04
   0.1127810208E+01   0.1997930342E+01   0.1999411408E+00   0.6302677562E-02  -0.2069658209E-02  -0.5886218754E-04   0.0000000000E+00   0.0000000000E+00   0.0000000000E+00   0.1671153234E+00   0.4499496270E-03   0.1576386288E-02   0.3283787159E-02   0.1560407662E-02  -0.2412586232E-04
   0.1359056615E+01   0.1770234338E+01   0.2911820022E-04   0.6928344565E-02  -0.1673702491E-02   0.2911820022E-04   0.0000000000E+00   0.0000000000E+00   0.0000000000E+00   0.1577665295E+00  -0.4576714820E-02  -0.3709237841E-03   0.2895205448E-02   0.6011339514E-04   0.6281521320E-03
   0.1346204058E+01   0.1998195462E+01   0.5211194377E-04   0.6678357649E-02  -0.1804537627E-02   0.5211194377E-04   0.0000000000E+00   0.0000000000E+00   0.0000000000E+00   0.1736784352E+00   0.9834217137E-03   0.6978040059E-03   0.2161016175E-02   0.8044851770E-03   0.6740324540E-03
   0.1359055408E+01   0.1770219661E+01   0.1999363636E+00   0.6927137654E-02  -0.1688379412E-02  -0.6363938644E-04   0.0000000000E+00   0.0000000000E+00   0.0000000000E+00   0.1588014732E+00  -0.4328347123E-02  -0.1387040026E-03   0.1793698464E-02   0.1058775755E-03   0.3156013048E-04
   0.1346201587E+01   0.1998180028E+01   0.1999489921E+00   0.6675887113E-02  -0.1819972002E-02  -0.5101092707E-04   0.0000000000E+00   0.0000000000E+00   0.0000000000E+00   0.1754404098E+00   0.1227309716E-02   0.1717518383E-02   0.1319688849E-02   0.7819376240E-03  -0.6957302236E-04
   0.1575694396E+01   0.1770437286E+01   0.2944295272E-04   0.7271606026E-02  -0.1470873529E-02   0.2944295272E-04   0.0000000000E+00   0.0000000000E+00   0.0000000000E+00   0.1567216616E+00  -0.3288291902E-02  -0.3582295836E-03  -0.1829667608E-02  -0.6641481214E-04   0.6556623712E-03
   0.1563720401E+01   0.1998403248E+01   0.5603797976E-04   0.7056891328E-02  -0.1596752217E-02   0.5603797976E-04   0.0000000000E+00   0.0000000000E+00   0.0000000000E+00   0.1752270445E+00   0.1542048791E-02   0.6939096203E-03  -0.7896651260E-04   0.6157790987E-04   0.7038455564E-03
   0.1575695143E+01   0.1770420295E+01   0.1999365699E+00   0.7272352984E-02  -0.1487865464E-02  -0.6343314737E-04   0.0000000000E+00   0.0000000000E+00   0.0000000000E+00   0.1576660347E+00  -0.3224738300E-02  -0.2052785112E-03  -0.2070585135E-02  -0.1896572583E-04   0.1159726257E-05
   0.1563720811E+01   0.1998385289E+01   0.1999515781E+00   0.7057300731E-02  -0.1614711364E-02  -0.4842487094E-04   0.0000000000E+00   0.0000000000E+00   0.0000000000E+00   0.1767506264E+00   0.1711374022E-02   0.1517963494E-02  -0.2587053303E-03   0.1592341750E-03  -0.9272588015E-04
   0.1791485193E+01   0.1770989629E+01   0.2685751095E-04   0.7608062916E-02  -0.1317650810E-02   0.2685751095E-04   0.0000000000E+00   0.0000000000E+00   0.0000000000E+00   0.1539436801E+00  -0.1959746057E-02  -0.2952849441E-03  -0.4759596581E-02  -0.1479101819E-03   0.5929042106E-03
   0.1780688274E+01   0.1998563269E+01   0.5292315058E-04   0.7432094438E-02  -0.1436731146E-02   0.5292315058E-04   0.0000000000E+00   0.0000000000E+00   0.0000000000E+00   0.1720466442E+00   0.1743423799E-02   0.6027520134E-03  -0.1510645702E-02  -0.4066215851E-03   0.6384145405E-03
   0.1791487644E+01   0.1770972767E+01   0.1999349957E+00   0.7610514169E-02  -0.1334512554E-02  -0.6500725300E-04   0.0000000000E+00   0.0000000000E+00   0.0000000000E+00   0.1546311617E+00  -0.2004849248E-02  -0.2283201841E-03  -0.4463641151E-02  -0.9126829924E-04  -0.3464213375E-04
   0.1780690984E+01   0.1998545544E+01   0.1999499872E+00   0.7434803850E-02  -0.1454456412E-02  -0.5001578067E-04   0.0000000000E+00   0.0000000000E+00   0.0000000000E+00   0.1731140826E+00   0.1830239013E-02   0.1143438962E-02  -0.1269804256E-02  -0.2384541024E-03  -0.1011672621E-03