 VARIABLES = X,Y,Z,DU1,DU2,DU3,U1,U2,U3,S11,S22,S33,S12,S13,S23
 ZONE, T="0.1000D+01" F=FEPOINT, I= 4104 J= 3075 ET=BRICK
  -0.1414913769E+01   0.1919653771E+01  -0.7049565140E+00  -0.2092285211E+01   0.9918887000E+00  -0.7049565140E+00   0.0000000000E+00   0.0000000000E+00   0.0000000000E+00   0.8575123835E+07   0.8574877345E+07   0.8575365023E+07   0.1304946700E+03   0.9839563111E+03   0.2814485406E+03
   0.5708591628E+00  -0.3239804989E+00   0.3223507155E-01   0.8303055082E-01  -0.1357533499E+01   0.3223507155E-01   0.0000000000E+00   0.0000000000E+00   0.0000000000E+00  -0.5263581335E+07  -0.5263017596E+07  -0.5263006659E+07   0.1728320194E+03  -0.1339804084E+03   0.3617886475E+03
   0.5973361501E+00   0.1537717109E+01  -0.4356895099E-01   0.1711944111E+00   0.6330606989E+00  -0.4356895099E-01   0.0000000000E+00   0.0000000000E+00   0.0000000000E+00  -0.3645729584E+08  -0.3645868282E+08  -0.3645723715E+08  -0.2633828102E+03   0.2982046341E+02  -0.1509645560E+03
   0.4440282169E+00   0.7586635463E+00   0.3229240472E+00  -0.1459116751E+00  -0.4878358869E-01   0.3229240472E+00   0.0000000000E+00   0.0000000000E+00   0.0000000000E+00  -0.1003471509E+08  -0.1003316342E+08  -0.1003415619E+08  -0.4553708532E+03  -0.3664673480E+03  -0.5607959044E+03
   0.1164867345E+01   0.7249604715E+00   0.3076869809E+00   0.4874959030E+00  -0.2028045995E+00   0.1076869779E+00   0.0000000000E+00   0.0000000000E+00   0.0000000000E+00   0.2421722111E+07   0.2421622279E+07   0.2421770861E+07  -0.1529818113E+02   0.3463889914E+02  -0.1467712184E+03
   0.4952322023E+00   0.1375677359E+01   0.4228351953E+00   0.7403590319E-02   0.3421243592E+00   0.2228351923E+00   0.0000000000E+00   0.0000000000E+00   0.0000000000E+00   0.3428384985E+06   0.3427485426E+06   0.3426974838E+06  -0.4416827188E+02  -0.3768110214E+02  -0.1053716762E+03
   0.3826328197E+00   0.7358629801E+00   0.1959383275E+00  -0.4350891927E-01  -0.1687934299E+00  -0.4061675518E-02   0.0000000000E+00   0.0000000000E+00   0.0000000000E+00   0.1005489111E+08   0.1005520965E+08   0.1005486250E+08   0.7682823398E+02   0.2050282706E+02   0.1475961356E+03
   0.6600684062E+00   0.7994452843E+00  -0.3395361672E-01   0.7012851419E-01  -0.8001850728E-02  -0.2339536197E+00   0.0000000000E+00   0.0000000000E+00   0.0000000000E+00   0.9853648836E+06   0.9851242956E+06   0.9852247880E+06   0.1002020138E+03   0.1153279496E+03   0.1440097825E+03
   0.7068833638E-01   0.2092953127E+01  -0.1719651967E+00  -0.2034158716E+00   0.9948056175E+00  -0.1719651967E+00   0.0000000000E+00   0.0000000000E+00   0.0000000000E+00   0.1536680898E+08   0.1536683554E+08   0.1536646820E+08   0.1191667395E+03   0.1457137672E+03  -0.1379678529E+03
   0.2296286332E+00   0.4025209335E+00   0.5687841620E-01  -0.1630910184E-01  -0.5667646735E+00   0.5687841620E-01   0.0000000000E+00   0.0000000000E+00   0.0000000000E+00   0.2266800703E+08   0.2266903657E+08   0.2266806105E+08  -0.2453114972E+02  -0.6225994472E+02   0.2699409411E+01
   0.3299763745E+00   0.8322206261E+00   0.3637877228E-01   0.5587216648E-01  -0.2659268839E+00  -0.1636212307E+00   0.0000000000E+00   0.0000000000E+00   0.0000000000E+00  -0.2307876022E+07  -0.2307904542E+07  -0.2307738171E+07  -0.3482627533E+02   0.7005012993E+02   0.8113307044E+02
   0.2593506655E+00   0.1115863491E+01   0.2298595828E+00   0.1341293055E-01   0.1465778844E+00   0.2985957978E-01   0.0000000000E+00   0.0000000000E+00   0.0000000000E+00  -0.6534250371E+07  -0.6534511032E+07  -0.6534275788E+07   0.4870835382E+01  -0.2763972459E+02  -0.1190775829E+03
   0.7375278506E-01   0.1363565877E+01  -0.1127149589E+00   0.1625305596E-01   0.2334186570E+00  -0.1127149589E+00   0.0000000000E+00   0.0000000000E+00   0.0000000000E+00  -0.5160376616E+07  -0.5160420475E+07  -0.5160224339E+07   0.1843978679E+03  -0.3026617923E+02   0.3162680467E+02
   0.5053514317E-01   0.8814272823E+00   0.2881813547E-01  -0.9260318428E-02  -0.1167833867E+00   0.2881813547E-01   0.0000000000E+00   0.0000000000E+00   0.0000000000E+00   0.8432671856E+07   0.8433041624E+07   0.8432674156E+07  -0.9079688047E+02   0.1407586416E+02  -0.7495488690E+02
   0.6134516472E-01   0.1061997479E+01   0.2018633792E+00   0.3845435617E-02  -0.6814974137E-01   0.1863376236E-02   0.0000000000E+00   0.0000000000E+00   0.0000000000E+00   0.2102045821E+07   0.2102064148E+07   0.2102042814E+07  -0.4815699573E+02  -0.3171055743E+02  -0.1286440645E+02
   0.6857669143E-01   0.1025764885E+01   0.2042832478E+00   0.8781229827E-02   0.2755421640E-01   0.4283244819E-02   0.0000000000E+00   0.0000000000E+00   0.0000000000E+00  -0.2464354483E+07  -0.2464458242E+07  -0.2464366023E+07   0.2469735485E+02   0.6417165182E+01   0.7194053522E+01
  -0.1653032665E+00   0.1088059248E+01   0.8980551343E-02  -0.6042935095E-03  -0.4005617193E-01   0.8980551343E-02   0.0000000000E+00   0.0000000000E+00   0.0000000000E+00   0.1591681792E+07   0.1591685704E+07   0.1591648618E+07  -0.1272053298E+02  -0.6917045828E+01   0.1102136577E+01
  -0.1181469598E+00   0.1006472949E+01  -0.3785258432E-03   0.1269752922E-01   0.1507002528E-01  -0.3785258432E-03   0.0000000000E+00   0.0000000000E+00   0.0000000000E+00  -0.1517434044E+07  -0.1517493480E+07  -0.1517434180E+07   0.7141483430E+01  -0.7895543515E+00   0.3127013692E+01
  -0.1590300978E+00   0.1134970324E+01   0.2025474988E+00   0.5668875210E-02   0.6854903956E-02   0.2547495782E-02   0.0000000000E+00   0.0000000000E+00   0.0000000000E+00  -0.4589687111E+06  -0.4589720657E+06  -0.4589642647E+06   0.2964379464E+01   0.1008991246E+02   0.6084346172E+00
  -0.1280813481E+00   0.9831879301E+00   0.1991238120E+00   0.2763140877E-02  -0.8214993923E-02  -0.8761910254E-03   0.0000000000E+00   0.0000000000E+00   0.0000000000E+00   0.4194082224E+06   0.4194249053E+06   0.4194089632E+06  -0.2012033300E+01  -0.2354584601E+01   0.5642774096E+00
  -0.3873150272E+00   0.1075351948E+01  -0.9656660590E-03   0.3549761814E-02  -0.1705110241E-01  -0.9656660590E-03   0.0000000000E+00   0.0000000000E+00   0.0000000000E+00  -0.3785287152E+05  -0.3783071029E+05  -0.3784051346E+05  -0.8404722044E+01   0.1210675396E+02   0.8313224795E+01
  -0.3261984863E+00   0.9428806895E+00   0.1043305140E-02   0.1943947735E-02  -0.1747549514E-02   0.1043305140E-02   0.0000000000E+00   0.0000000000E+00   0.0000000000E+00  -0.3469274242E+06  -0.3469512412E+06  -0.3469322900E+06   0.6946200885E+00  -0.3569717383E+01  -0.3569951378E+01
  -0.3861013115E+00   0.1092768830E+01   0.2000584559E+00   0.4763477515E-02   0.3657804758E-03   0.5845288296E-04   0.0000000000E+00   0.0000000000E+00   0.0000000000E+00   0.1583177543E+05   0.1582612338E+05   0.1582912779E+05   0.2389524493E+01  -0.7635447760E+01  -0.8922341269E+00
  -0.3234883219E+00   0.9411917881E+00   0.2009595390E+00   0.4654112091E-02  -0.3436450911E-02   0.9595359591E-03   0.0000000000E+00   0.0000000000E+00   0.0000000000E+00   0.8948473426E+05   0.8949076157E+05   0.8948562473E+05  -0.3220752479E-02   0.2879461264E+01   0.5682385043E+00
   0.4423008079E+00   0.1028431092E+01   0.3089640247E+01  -0.3446918021E+00  -0.4281052774E-01   0.3089640247E+01   0.0000000000E+00   0.0000000000E+00   0.0000000000E+00  -0.4000341803E+08  -0.4000406656E+08  -0.4000538014E+08   0.2713097220E+02   0.1480760638E+03  -0.1816349339E+03
   0.6132945169E+00   0.1809662950E+01  -0.2401047159E+00   0.9964803386E-01   0.6289383301E+00  -0.2401047159E+00   0.0000000000E+00   0.0000000000E+00   0.0000000000E+00  -0.3757203632E+07  -0.3756210934E+07  -0.3757215161E+07   0.1288968451E+03   0.2586382538E+03  -0.1699952194E+03
   0.1191965799E+01   0.8318615402E+00  -0.3677955881E+00   0.4049731885E+00  -0.2393800798E+00  -0.5677955911E+00   0.0000000000E+00   0.0000000000E+00   0.0000000000E+00  -0.1032111260E+08  -0.1032093243E+08  -0.1032142640E+08  -0.8185633354E+01   0.9195389483E+02   0.3974960790E+02
   0.4128386393E+00   0.1074603184E+01  -0.5849034951E+00  -0.1008078437E+00  -0.1061214358E+00  -0.7849034981E+00   0.0000000000E+00   0.0000000000E+00   0.0000000000E+00   0.6091238237E+07   0.6090907362E+07   0.6091299805E+07  -0.6603487758E+02  -0.1194938069E+03  -0.2869248990E+02
   0.1797429230E+01   0.1517883007E+01   0.6779835210E+00   0.1518514302E+01   0.2766012567E+00   0.6779835210E+00   0.0000000000E+00   0.0000000000E+00   0.0000000000E+00  -0.1484279478E+08  -0.1484348967E+08  -0.1484270294E+08  -0.6644716334E+02  -0.6152038538E+03  -0.9287721054E+02
  -0.9889528994E-01   0.1145145027E+01   0.8009986996E+00  -0.3778102179E+00  -0.9613672326E-01   0.6009986966E+00   0.0000000000E+00   0.0000000000E+00   0.0000000000E+00  -0.3094933000E+07  -0.3094709123E+07  -0.3095159487E+07   0.3506101351E+02  -0.1690694707E+03  -0.2132488410E+02
   0.6571974814E-01   0.9861730709E+00   0.4159807356E+00   0.8484678542E-02  -0.2858780291E+00   0.4159807356E+00   0.0000000000E+00   0.0000000000E+00   0.0000000000E+00   0.1858105773E+07   0.1857632187E+07   0.1857574611E+07   0.2414551965E+02   0.1190943394E+03   0.7796085004E+02
   0.5551907653E-01   0.1348928660E+01   0.1990411071E+00  -0.1715993074E-02   0.7687756033E-01  -0.9588958844E-03   0.0000000000E+00   0.0000000000E+00   0.0000000000E+00  -0.3083523694E+07  -0.3083412616E+07  -0.3083517473E+07  -0.1321047942E+02   0.9651280572E+02   0.1691322595E+02
  -0.1500820506E+00   0.1318550925E+01  -0.2755950560E-01   0.1353904737E-01   0.3986130515E-01  -0.2755950560E-01   0.0000000000E+00   0.0000000000E+00   0.0000000000E+00  -0.1822000661E+07  -0.1821893907E+07  -0.1821901312E+07  -0.6092531341E+02   0.1535096392E+02  -0.1064613377E+02
  -0.1595749582E+00   0.1262308165E+01   0.1921783417E+00   0.4046139776E-02  -0.1638145549E-01  -0.7821661348E-02   0.0000000000E+00   0.0000000000E+00   0.0000000000E+00   0.5701123618E+06   0.5700889148E+06   0.5700997773E+06   0.1852468997E+02  -0.2626000605E+02  -0.2725539408E+01
  -0.3783275927E+00   0.1333749043E+01   0.6225601162E-02   0.1090009535E-01   0.6888436296E-01   0.6225601162E-02   0.0000000000E+00   0.0000000000E+00   0.0000000000E+00   0.4234260277E+06   0.4234018169E+06   0.4234036351E+06   0.5519513303E+02  -0.9969571059E+01  -0.2192769070E+02
  -0.3874132918E+00   0.1242489732E+01   0.2022849492E+00   0.1814396232E-02  -0.2237494819E-01   0.2284946250E-02   0.0000000000E+00   0.0000000000E+00   0.0000000000E+00  -0.1124958297E+06  -0.1124913816E+06  -0.1124936290E+06  -0.1540221969E+02   0.7473493646E+01  -0.3615451656E+01
  -0.1832952258E+00   0.1453009271E+01   0.4101850294E-02  -0.7977237778E-02   0.6650110523E-02   0.4101850294E-02   0.0000000000E+00   0.0000000000E+00   0.0000000000E+00   0.7272200776E+06   0.7271593131E+06   0.7271767927E+06   0.4047472669E+02   0.7034750750E+01   0.1805141554E+01
  -0.3912484597E+00   0.1416819664E+01   0.2668242361E-03   0.5905275301E-02  -0.2769627628E-01   0.2668242361E-03   0.0000000000E+00   0.0000000000E+00   0.0000000000E+00  -0.7588766288E+06  -0.7588880961E+06  -0.7588679932E+06  -0.2258957554E+02  -0.3918795037E+00   0.6164408784E+01
  -0.1677310795E+00   0.1440288894E+01   0.2045829571E+00   0.7586908545E-02  -0.6070265548E-02   0.4582954082E-02   0.0000000000E+00   0.0000000000E+00   0.0000000000E+00  -0.1814066642E+06  -0.1813917779E+06  -0.1813981536E+06  -0.1166226487E+02   0.3709879533E+01   0.7604951911E+00
  -0.3932253723E+00   0.1447383118E+01   0.1994295539E+00   0.3928362652E-02   0.2867178428E-02  -0.5704491366E-03   0.0000000000E+00   0.0000000000E+00   0.0000000000E+00   0.1935825462E+06   0.1935858348E+06   0.1935806798E+06   0.6211091570E+01  -0.1226445337E+01   0.9826343719E+00
  -0.1791437700E+00   0.1612867259E+01  -0.3514923785E-03   0.9488733027E-02  -0.1273737104E-01  -0.3514923785E-03   0.0000000000E+00   0.0000000000E+00   0.0000000000E+00  -0.4361809871E+06  -0.4361604421E+06  -0.4361625433E+06  -0.1318577897E+02  -0.2425784250E+01   0.7565810542E+00
  -0.4058263068E+00   0.1631737551E+01   0.6942726977E-03   0.3571593172E-02   0.4242740552E-02   0.6942726977E-03   0.0000000000E+00   0.0000000000E+00   0.0000000000E+00   0.4209753096E+06   0.4209834821E+06   0.4209710565E+06   0.6968136550E+01   0.3095413097E+00  -0.1994708760E+01
  -0.1851400777E+00   0.1624149236E+01   0.1992863992E+00   0.3492425349E-02  -0.1455394150E-02  -0.7136037725E-03   0.0000000000E+00   0.0000000000E+00   0.0000000000E+00   0.1105116580E+06   0.1105062077E+06   0.1105072838E+06   0.3803881883E+01  -0.1062208695E+01  -0.5131469412E+00
  -0.4048199052E+00   0.1621883709E+01   0.2006454871E+00   0.4577994824E-02  -0.5611100618E-02   0.6454840705E-03   0.0000000000E+00   0.0000000000E+00   0.0000000000E+00  -0.1095681487E+06  -0.1095705807E+06  -0.1095674070E+06  -0.1953299932E+01   0.3648078885E+00  -0.1881972922E+00
  -0.1836806194E+00   0.1816807946E+01   0.2204835427E-03   0.1460506456E-01   0.5420405785E-02   0.2204835427E-03   0.0000000000E+00   0.0000000000E+00   0.0000000000E+00  -0.1530725187E+06  -0.1530610275E+06  -0.1530639945E+06  -0.2020850504E+01  -0.1655962662E+01  -0.2319008813E+01
  -0.4179094989E+00   0.1805238441E+01   0.4809003109E-03   0.9721260597E-03  -0.7719558860E-02   0.4809003109E-03   0.0000000000E+00   0.0000000000E+00   0.0000000000E+00  -0.1170500661E+06  -0.1170581031E+06  -0.1170517514E+06  -0.7481554293E+00   0.7004128550E+00   0.1111738684E+01
  -0.1962218224E+00   0.1805074730E+01   0.1999255388E+00   0.2063861556E-02  -0.6312809808E-02  -0.7446422396E-04   0.0000000000E+00   0.0000000000E+00   0.0000000000E+00   0.4828618156E+05   0.4828293090E+05   0.4828371355E+05   0.4407559202E+00   0.8936039766E+00  -0.1470859283E+00
  -0.4135030034E+00   0.1810358638E+01   0.2003904644E+00   0.5378621561E-02  -0.2599361517E-02   0.3904614302E-03   0.0000000000E+00   0.0000000000E+00   0.0000000000E+00   0.2912293522E+05   0.2912492823E+05   0.2912322944E+05   0.1951394098E+00  -0.2363025686E+00   0.1222510413E+00
  -0.1622744801E+00   0.1995856024E+01  -0.4073787128E-02   0.4381704286E-01  -0.4143976251E-02  -0.4073787128E-02   0.0000000000E+00   0.0000000000E+00   0.0000000000E+00  -0.1501015624E+07  -0.1500968442E+07  -0.1500960855E+07   0.2879800874E+01  -0.3418077615E+01  -0.8327646023E+00
  -0.4349342976E+00   0.1996502293E+01   0.1507021863E-02  -0.8296528582E-02  -0.3497707495E-02   0.1507021863E-02   0.0000000000E+00   0.0000000000E+00   0.0000000000E+00   0.4036226231E+06   0.4036172155E+06   0.4036114713E+06  -0.8973184155E+00   0.1507444248E+01   0.9880733952E-01
  -0.2117577041E+00   0.1996102670E+01   0.1986094006E+00  -0.5666181107E-02  -0.3897330108E-02  -0.1390602361E-02   0.0000000000E+00   0.0000000000E+00   0.0000000000E+00   0.4345494694E+06   0.4345366728E+06   0.4345360875E+06  -0.7376367333E+00   0.5491029962E+00  -0.3518035867E+00
  -0.4186188366E+00   0.1996170104E+01   0.2006574006E+00   0.8018932374E-02  -0.3829896051E-02   0.6573976337E-03   0.0000000000E+00   0.0000000000E+00   0.0000000000E+00  -0.1164590494E+06  -0.1164577173E+06  -0.1164565774E+06   0.2222980726E+00  -0.3737826343E-01   0.7283060220E-01
   0.7625694668E-01   0.1366229958E+01  -0.9534943368E-01   0.2983744538E-01  -0.7142620156E-01  -0.9534943368E-01   0.0000000000E+00   0.0000000000E+00   0.0000000000E+00  -0.9960121921E+05  -0.9934182632E+05  -0.9941685830E+05  -0.1629074840E+03  -0.6615480126E+02  -0.4711070788E+02
   0.4645173258E-01   0.1450928092E+01   0.1936480832E+00   0.3223127694E-04   0.1327193212E-01  -0.6351919843E-02   0.0000000000E+00   0.0000000000E+00   0.0000000000E+00   0.5923264107E+06   0.5922596330E+06   0.5923093222E+06   0.4620268706E+02  -0.1525423568E+02   0.3622298204E+01
   0.2698350686E-01   0.1670792980E+01   0.2626871978E-01  -0.6602909542E-02   0.5241982044E-01   0.2626871978E-01   0.0000000000E+00   0.0000000000E+00   0.0000000000E+00   0.1068391199E+07   0.1068319275E+07   0.1068319625E+07   0.7260181267E+02   0.1997482318E+02   0.1558112086E+02
   0.4128362819E-01   0.1599865349E+01   0.2021750262E+00   0.7697211786E-02  -0.1850781072E-01   0.2175023220E-02   0.0000000000E+00   0.0000000000E+00   0.0000000000E+00  -0.4292569731E+06  -0.4292383231E+06  -0.4292467125E+06  -0.2034345878E+02   0.4261174400E+01  -0.1979713617E+01
   0.2927554361E-03   0.1758999638E+01  -0.4662892535E-02  -0.2357865146E-01  -0.4844422175E-01  -0.4662892535E-02   0.0000000000E+00   0.0000000000E+00   0.0000000000E+00  -0.1153927947E+06  -0.1154214367E+06  -0.1153998400E+06  -0.9967572902E+01   0.1122022501E+01   0.6403279830E+00
   0.3664831711E-01   0.1815379914E+01   0.2023317184E+00   0.1277691021E-01   0.7936053560E-02   0.2331715365E-02   0.0000000000E+00   0.0000000000E+00   0.0000000000E+00   0.4857722398E+05   0.4858473601E+05   0.4858056520E+05   0.2988275347E+01  -0.2853531071E+01   0.2243000280E+01
  -0.9036722875E-01   0.2001394340E+01   0.1821505111E-01  -0.1067272583E+00   0.1394339854E-02   0.1821505111E-01   0.0000000000E+00   0.0000000000E+00   0.0000000000E+00   0.3657887958E+07   0.3657810049E+07   0.3657770166E+07  -0.3776529337E+01   0.1114869097E+02   0.9216902648E+01
   0.5126507541E-01   0.1994579599E+01   0.2060006531E+00   0.3490504581E-01  -0.5420400954E-02   0.6000650061E-02   0.0000000000E+00   0.0000000000E+00   0.0000000000E+00  -0.1113175266E+07  -0.1113154370E+07  -0.1113149515E+07   0.8487238675E+00  -0.1403042836E+01   0.3269645106E+00
  -0.3434059918E+00   0.4391239339E+00  -0.2376938533E+00  -0.6140957478E+00  -0.9756552561E+00  -0.2376938533E+00   0.0000000000E+00   0.0000000000E+00   0.0000000000E+00   0.3580517704E+07   0.3580745047E+07   0.3580581579E+07  -0.3021564010E+02   0.2684143986E+03   0.1915862753E+03
   0.4362519308E+00   0.1676439124E+01   0.6642267824E-01   0.1655621748E+00   0.2616599342E+00  -0.1335773248E+00   0.0000000000E+00   0.0000000000E+00   0.0000000000E+00   0.1400378849E+07   0.1400312498E+07   0.1400430210E+07   0.8344563835E+00   0.1447133221E+02  -0.3378947574E+02
   0.4734163021E+00   0.2070052479E+01   0.6440897345E-01   0.2157549591E+00   0.4661725491E+00   0.6440897345E-01   0.0000000000E+00   0.0000000000E+00   0.0000000000E+00   0.5223146510E+07   0.5223388546E+07   0.5223157184E+07   0.8183951780E+02  -0.8188940297E+02  -0.7827807171E+02
   0.2082679786E+00   0.1473059064E+01   0.2363699211E+00  -0.4939336438E-01  -0.1308208660E+00   0.3636991810E-01   0.0000000000E+00   0.0000000000E+00   0.0000000000E+00  -0.2061875114E+07  -0.2061940173E+07  -0.2061896705E+07  -0.1920459568E+02  -0.4220112098E+01   0.1555952250E+02
   0.2734706943E+00   0.1688524168E+01  -0.2333265494E-01   0.2639069632E-01  -0.1119519020E+00  -0.2333265494E-01   0.0000000000E+00   0.0000000000E+00   0.0000000000E+00  -0.6166008757E+07  -0.6166190386E+07  -0.6165979409E+07  -0.9246579022E+02   0.5138182702E+01   0.5720175137E+00
   0.2463040133E+00   0.1825961092E+01   0.1812805990E+00  -0.7759847181E-03   0.2548502231E-01  -0.1871940405E-01   0.0000000000E+00   0.0000000000E+00   0.0000000000E+00   0.1906295101E+07   0.1906344060E+07   0.1906294692E+07   0.2379772117E+02   0.5012059110E+01  -0.1319351481E+02
   0.5498915321E+00   0.2067378389E+01  -0.5496274868E-01   0.3108165421E+00   0.6737838922E-01  -0.5496274868E-01   0.0000000000E+00   0.0000000000E+00   0.0000000000E+00   0.1398063347E+07   0.1398407692E+07   0.1398224298E+07   0.8573172887E+02  -0.3304283143E+02  -0.9901991516E+01
   0.1625177227E+00   0.1976867396E+01   0.1817157424E+00  -0.7655726729E-01  -0.2313260402E-01  -0.1828426060E-01   0.0000000000E+00   0.0000000000E+00   0.0000000000E+00   0.3644455895E+05   0.3635153771E+05   0.3641885031E+05  -0.2240926718E+02   0.3661358193E+01   0.6974617212E+01
   0.7190702131E+00   0.2206616991E+01   0.2775627391E+00   0.2161609101E+00   0.8290357508E+00   0.2775627391E+00   0.0000000000E+00   0.0000000000E+00   0.0000000000E+00  -0.5149542996E+07  -0.5150168529E+07  -0.5149821080E+07  -0.9948765986E+02  -0.2471408961E+03  -0.2298677081E+03
   0.4744986667E+00   0.1133697619E+01   0.3105723129E+00  -0.2841063628E-01  -0.2438836205E+00   0.1105723099E+00   0.0000000000E+00   0.0000000000E+00   0.0000000000E+00  -0.1692657727E+07  -0.1692491928E+07  -0.1692654832E+07   0.4458915415E+02   0.9669620240E+02   0.6664668276E+02
   0.3293567908E+00   0.1154905738E+01  -0.7364100735E-01  -0.1558895692E+00  -0.4283283320E+00  -0.7364100735E-01   0.0000000000E+00   0.0000000000E+00   0.0000000000E+00  -0.3882420522E+07  -0.3882584516E+07  -0.3882406960E+07  -0.4103610761E+02   0.9503330325E+02   0.8212995160E+02
   0.5284088472E+00   0.1698278919E+01   0.1705643970E+00   0.4316248720E-01   0.1150448490E+00  -0.2943560604E-01   0.0000000000E+00   0.0000000000E+00   0.0000000000E+00   0.1970901018E+07   0.1970950402E+07   0.1970916782E+07   0.3464217627E+01  -0.2280413267E+02  -0.1988352628E+02
   0.3621655003E+00   0.1692951577E+01   0.4525130403E-01  -0.1092201277E+00  -0.9823571333E-01   0.4525130403E-01   0.0000000000E+00   0.0000000000E+00   0.0000000000E+00   0.3906229226E+07   0.3906400049E+07   0.3906248928E+07   0.1074226606E+03   0.9496362957E+01   0.6599415506E+02
   0.5093578956E+00   0.1811694266E+01   0.2433139294E+00   0.3797226764E-01   0.2050697586E-01   0.4331392637E-01   0.0000000000E+00   0.0000000000E+00   0.0000000000E+00  -0.1580465095E+07  -0.1580514244E+07  -0.1580485799E+07  -0.2578073846E+02  -0.3485360919E+00   0.2910403265E+02
  -0.1613103702E+00   0.1923765914E+01   0.2185636956E+00  -0.6226661462E+00  -0.7623408597E-01   0.2185636956E+00   0.0000000000E+00   0.0000000000E+00   0.0000000000E+00  -0.1884457018E+07  -0.1884557692E+07  -0.1884532673E+07  -0.1224673513E+03   0.8049635369E+02   0.3679572019E+02
   0.6346970295E+00   0.2015990559E+01   0.2768729704E+00   0.1733412535E+00   0.1599055869E-01   0.7687296740E-01   0.0000000000E+00   0.0000000000E+00   0.0000000000E+00  -0.1142923322E+07  -0.1142893801E+07  -0.1142972223E+07   0.3099350370E+02  -0.4431642119E+01  -0.2108451864E+01
   0.1129479203E+01   0.4653425312E+00  -0.1620036614E+01   0.3847226237E+00  -0.8671260988E+00  -0.1620036614E+01   0.0000000000E+00   0.0000000000E+00   0.0000000000E+00   0.2082742262E+08   0.2082765104E+08   0.2082861088E+08  -0.3546360930E+02  -0.1741141389E+03  -0.6617092411E+02
   0.5683052291E+00   0.1626778914E+01   0.7267748490E+00  -0.1764513499E+00   0.2943102839E+00   0.5267748460E+00   0.0000000000E+00   0.0000000000E+00   0.0000000000E+00   0.6273869284E+07   0.6273875755E+07   0.6273986063E+07  -0.2223802578E+02  -0.3114109129E+02   0.1061357977E+03
   0.9253233049E+00   0.1792606504E+01   0.4346209377E+00   0.2126207329E+00   0.2317117738E+00   0.4346209377E+00   0.0000000000E+00   0.0000000000E+00   0.0000000000E+00   0.4849073205E+07   0.4849431923E+07   0.4848757133E+07   0.3667395886E+01  -0.2290209796E+02   0.2293765737E+03
   0.6853432308E+00   0.1477429225E+01   0.6034661177E-01  -0.2735934117E-01  -0.8346550523E-01  -0.1396533912E+00   0.0000000000E+00   0.0000000000E+00   0.0000000000E+00  -0.4855969986E+07  -0.4856103641E+07  -0.4856004211E+07   0.1739089330E+02  -0.1598847939E+02  -0.1040915775E+03
   0.7186410827E+00   0.2653716237E+01  -0.2088248137E+00   0.2678076474E-01   0.8726772373E+00  -0.2088248137E+00   0.0000000000E+00   0.0000000000E+00   0.0000000000E+00   0.5809282012E+06   0.5807963362E+06   0.5808926965E+06   0.9056590955E+01  -0.2160652876E+02  -0.4621020920E+03
   0.6863644515E+00   0.1547584301E+01   0.1071346767E+00  -0.5495866470E-02  -0.2334546986E+00  -0.9286532625E-01   0.0000000000E+00   0.0000000000E+00   0.0000000000E+00   0.1852318437E+07   0.1852369710E+07   0.1852396875E+07  -0.1072989673E+02   0.5058265319E+00  -0.3085482677E+02
   0.1247871193E+01   0.1983786100E+01  -0.8025377435E+00   0.5659099552E+00  -0.1621389970E-01  -0.8025377435E+00   0.0000000000E+00   0.0000000000E+00   0.0000000000E+00   0.8854012705E+06   0.8847617628E+06   0.8852748764E+06   0.1279812626E+03  -0.1524285800E+03  -0.2714234640E+02
   0.5391735475E+00   0.1998702818E+01  -0.1036870424E+00  -0.1427876905E+00  -0.1297181682E-02  -0.3036870454E+00   0.0000000000E+00   0.0000000000E+00   0.0000000000E+00   0.5916254413E+07   0.5916414821E+07   0.5916542443E+07  -0.2842199224E+02  -0.3236975092E+02  -0.5678312366E+02
   0.1033678110E+01   0.1570493308E+01   0.5026480504E-01   0.1193216403E+00  -0.2048660816E+00   0.5026480504E-01   0.0000000000E+00   0.0000000000E+00   0.0000000000E+00  -0.7551805065E+06  -0.7551221181E+06  -0.7551400589E+06  -0.1011486977E+03  -0.4081465560E+01   0.1086528527E+03
   0.1233008652E+01   0.2015678676E+01   0.2172145130E+00   0.3307051347E+00   0.1567867580E-01   0.2172145130E+00   0.0000000000E+00   0.0000000000E+00   0.0000000000E+00  -0.4728783075E+07  -0.4728459196E+07  -0.4728585208E+07   0.3749703550E+02   0.9572477314E+00   0.1249781028E+02
   0.8918907769E+00   0.1825219732E+01   0.2291783905E+00  -0.2246569311E-01   0.4986034188E-01   0.2917838753E-01   0.0000000000E+00   0.0000000000E+00   0.0000000000E+00  -0.2730515227E+06  -0.2730733788E+06  -0.2730809198E+06   0.2901499650E+02   0.4452171690E+01   0.1270064828E+02
   0.8209242699E+00   0.1992100297E+01   0.2806629496E+00  -0.8137924712E-01  -0.7899702628E-02   0.8066294661E-01   0.0000000000E+00   0.0000000000E+00   0.0000000000E+00  -0.3964699326E+06  -0.3965535044E+06  -0.3965913244E+06  -0.1153929376E+02   0.1832696359E+02   0.1203984256E+02
   0.1020210165E+01   0.1815972338E+01  -0.1266056013E-01  -0.1141408549E+00   0.4320979820E-01  -0.1266056013E-01   0.0000000000E+00   0.0000000000E+00   0.0000000000E+00  -0.4738971948E+06  -0.4738816472E+06  -0.4738797330E+06  -0.3665413581E+02   0.2102197353E+02  -0.2722238460E+02
   0.9285485745E+00   0.1987113633E+01  -0.5770904347E-01  -0.1929589555E+00  -0.1288636650E-01  -0.5770904347E-01   0.0000000000E+00   0.0000000000E+00   0.0000000000E+00  -0.4165500764E+06  -0.4165665543E+06  -0.4165341685E+06   0.2531304853E+02   0.5818455933E+01  -0.3337537649E+01
   0.1172914283E+01   0.1758115565E+01   0.1919383958E+00   0.3856326348E-01  -0.1464697450E-01  -0.8061607156E-02   0.0000000000E+00   0.0000000000E+00   0.0000000000E+00   0.2459178691E+06   0.2459155834E+06   0.2459182860E+06   0.9445823048E+01   0.4585775171E+00  -0.4088576654E+01
   0.1181387607E+01   0.1999713120E+01   0.1789264186E+00   0.5988007659E-01  -0.2868802180E-03  -0.2107358441E-01   0.0000000000E+00   0.0000000000E+00   0.0000000000E+00   0.5595067996E+06   0.5595099649E+06   0.5595205139E+06  -0.6396391713E+01  -0.8351720328E+01  -0.2822921077E+01
   0.1384718824E+01   0.1765555312E+01   0.3865575395E-02   0.3259055436E-01  -0.6352727612E-02   0.3865575395E-02   0.0000000000E+00   0.0000000000E+00   0.0000000000E+00   0.1235862613E+07   0.1235845272E+07   0.1235829387E+07  -0.1559711921E+02  -0.1999767248E+01   0.4968217737E+01
   0.1438308511E+01   0.1999677197E+01   0.1609985491E-01   0.9878281095E-01  -0.3228030361E-03   0.1609985491E-01   0.0000000000E+00   0.0000000000E+00   0.0000000000E+00   0.9808237832E+06   0.9807695351E+06   0.9807726221E+06   0.1593392567E+02  -0.5568791263E+01   0.1443367839E+01
   0.1352333013E+01   0.1770457939E+01   0.2028151202E+00   0.2047429636E-03  -0.1450101293E-02   0.2815117207E-02   0.0000000000E+00   0.0000000000E+00   0.0000000000E+00  -0.3606080022E+06  -0.3606042456E+06  -0.3606008111E+06   0.4253737304E+01   0.1279602655E+01   0.1099150700E+01
   0.1321539190E+01   0.1996786427E+01   0.2059853626E+00  -0.1798650961E-01  -0.3213573282E-02   0.5985359574E-02   0.0000000000E+00   0.0000000000E+00   0.0000000000E+00  -0.3833638487E+06  -0.3833492025E+06  -0.3833551880E+06  -0.4358396625E+01   0.2690069398E+01   0.6434732297E+00
   0.1561746805E+01   0.1770901975E+01  -0.2147143369E-03  -0.6675985371E-02  -0.1006184738E-02  -0.2147143369E-03   0.0000000000E+00   0.0000000000E+00   0.0000000000E+00  -0.4495646188E+06  -0.4495521750E+06  -0.4495497782E+06  -0.2718153850E+01   0.2146191707E+01  -0.1076014974E+01
   0.1531073785E+01   0.1996486101E+01  -0.3735577809E-02  -0.2558972468E-01  -0.3513899053E-02  -0.3735577809E-02   0.0000000000E+00   0.0000000000E+00   0.0000000000E+00  -0.8433541666E+06  -0.8433188501E+06  -0.8433184973E+06  -0.1717722314E+01   0.1869952210E+01  -0.5591398915E+00
   0.1579442087E+01   0.1769408085E+01   0.1995471765E+00   0.1101929695E-01  -0.2500074647E-02  -0.4528264848E-03   0.0000000000E+00   0.0000000000E+00   0.0000000000E+00   0.1261993496E+06   0.1261960288E+06   0.1261955531E+06   0.7161344117E+00  -0.2502904382E+00  -0.4716251394E+00
   0.1572496574E+01   0.1997883966E+01   0.1988565072E+00   0.1583306388E-01  -0.2116034309E-02  -0.1143495801E-02   0.0000000000E+00   0.0000000000E+00   0.0000000000E+00   0.2588326260E+06   0.2588228545E+06   0.2588241632E+06   0.4813808324E+00  -0.9696179063E+00  -0.7551729453E-01
   0.1796168510E+01   0.1769893659E+01   0.5609009941E-03   0.1229138038E-01  -0.2413621357E-02   0.5609009941E-03   0.0000000000E+00   0.0000000000E+00   0.0000000000E+00   0.2183391855E+06   0.2183309925E+06   0.2183308036E+06   0.1242670307E+01  -0.7578364366E+00   0.1923527415E+00
   0.1791868167E+01   0.1998241402E+01   0.1678027961E-02   0.1861198663E-01  -0.1758597863E-02   0.1678027961E-02   0.0000000000E+00   0.0000000000E+00   0.0000000000E+00   0.4259870895E+06   0.4259700145E+06   0.4259696013E+06   0.8315847416E+00  -0.6687822470E+00   0.2218400231E+00
   0.1790270987E+01   0.1770360762E+01   0.2005473999E+00   0.6393857051E-02  -0.1946517719E-02   0.5473969283E-03   0.0000000000E+00   0.0000000000E+00   0.0000000000E+00  -0.5938113042E+05  -0.5937919938E+05  -0.5937916006E+05  -0.3407496350E+00   0.1120905690E+00   0.1731361451E+00
   0.1777693767E+01   0.1997636102E+01   0.2007447059E+00   0.4437587360E-02  -0.2363898315E-02   0.7447029031E-03   0.0000000000E+00   0.0000000000E+00   0.0000000000E+00  -0.1231714840E+06  -0.1231670922E+06  -0.1231673625E+06  -0.2324987692E+00   0.3083376061E+00  -0.2785368938E-02