 VARIABLES = X,Y,DU1,DU2,U1,U2,S11,S22,S33,S12
 ZONE, T="0.1000D+01" F=FEPOINT, I=  281 J=  250
   0.1776192657E-01   0.1341985925E+00   0.6909869291E-05  -0.3920348405E-04   0.0000000000E+00   0.0000000000E+00   0.4616050971E-01   0.8013260537E-02   0.1625213107E-01   0.8324658814E-03
   0.0000000000E+00   0.1332932631E+00   0.0000000000E+00  -0.4007690923E-04   0.0000000000E+00   0.0000000000E+00   0.4729044672E-01   0.9842144549E-02   0.1713977738E-01   0.1400408146E-02
   0.0000000000E+00   0.1166288208E+00   0.0000000000E+00  -0.3784619175E-04   0.0000000000E+00   0.0000000000E+00   0.6408601870E-01   0.7937911306E-02   0.2160717900E-01   0.6938143089E-03
   0.1916395219E-01   0.1162543014E+00   0.9815186294E-05  -0.3688658700E-04   0.0000000000E+00   0.0000000000E+00   0.5908374024E-01   0.9170659418E-02   0.2047631990E-01  -0.4827973304E-02
   0.7801990605E-01   0.2318356153E+00   0.1840685416E-04  -0.4078768926E-04   0.0000000000E+00   0.0000000000E+00   0.2886999311E-01  -0.9203225990E-04   0.8633388254E-02   0.1996790483E-02
   0.9780175763E-01   0.2320181122E+00   0.2375772545E-04  -0.3714984893E-04   0.0000000000E+00   0.0000000000E+00   0.3066722379E-01  -0.1512929172E-03   0.9154779263E-02   0.1840103192E-02
   0.9724300885E-01   0.2499606109E+00   0.2078494996E-04  -0.3938911411E-04   0.0000000000E+00   0.0000000000E+00   0.3010162196E-01   0.3722151179E-04   0.9041653042E-02   0.5663158336E-03
   0.7779351712E-01   0.2499571910E+00   0.1573652247E-04  -0.4280896733E-04   0.0000000000E+00   0.0000000000E+00   0.2744671536E-01   0.1925072876E-03   0.8291766793E-02   0.6362586428E-03
   0.1910235444E-01   0.2332742700E+00   0.4163840029E-05  -0.4855904863E-04   0.0000000000E+00   0.0000000000E+00   0.2403934916E-01   0.2234112751E-03   0.7278828129E-02   0.5688435026E-03
   0.0000000000E+00   0.2332842109E+00   0.0000000000E+00  -0.4912310338E-04   0.0000000000E+00   0.0000000000E+00   0.2363219323E-01   0.2454292827E-03   0.7163286753E-02   0.6612751077E-03
   0.0000000000E+00   0.2166190885E+00   0.0000000000E+00  -0.4758052946E-04   0.0000000000E+00   0.0000000000E+00   0.2751767140E-01   0.1432773757E-02   0.8685133546E-02   0.6771358658E-03
   0.1853684593E-01   0.2167275804E+00   0.4551129724E-05  -0.4703264981E-04   0.0000000000E+00   0.0000000000E+00   0.2774991395E-01   0.1304095414E-02   0.8716202809E-02   0.1133897494E-02
   0.2572892012E+00   0.9227103977E-01   0.8371515816E-04  -0.3231232900E-05   0.0000000000E+00   0.0000000000E+00   0.2037138723E-01   0.1903114693E-02   0.6682350576E-02  -0.2824130454E-02
   0.2586837204E+00   0.1102814908E+00   0.8244236033E-04  -0.4439159032E-05   0.0000000000E+00   0.0000000000E+00   0.2227858998E-01   0.1392358336E-02   0.7101284494E-02  -0.2707522658E-02
   0.2419345906E+00   0.1106718854E+00   0.7905864392E-04  -0.4783587335E-05   0.0000000000E+00   0.0000000000E+00   0.2253157709E-01   0.6975176337E-03   0.6968728417E-02  -0.3202329639E-02
   0.2394606085E+00   0.9267784014E-01   0.8047253994E-04  -0.3478363437E-05   0.0000000000E+00   0.0000000000E+00   0.2043486114E-01   0.1198611232E-02   0.6490041712E-02  -0.3443299181E-02
   0.9245949650E-01   0.3825722810E-01   0.7154459947E-04  -0.1111450394E-04   0.0000000000E+00   0.0000000000E+00   0.4660530860E-03  -0.1312159340E-01  -0.3796662093E-02   0.3560255151E-02
   0.1081168363E+00   0.4609179222E-01   0.6997626361E-04  -0.6749277621E-05   0.0000000000E+00   0.0000000000E+00   0.3439684396E-02  -0.9433668193E-02  -0.1798195139E-02  -0.3482960478E-02
   0.9617288610E-01   0.6353037696E-01   0.6178969931E-04  -0.1181774231E-04   0.0000000000E+00   0.0000000000E+00   0.1075449217E-01  -0.4767122573E-02   0.1796210880E-02  -0.5283530864E-02
   0.8321170527E-01   0.5554046815E-01   0.6474577391E-04  -0.1655554887E-04   0.0000000000E+00   0.0000000000E+00   0.3823853764E-02  -0.1629085256E-02   0.6584305525E-03  -0.1575655615E-02
   0.9815395346E-01   0.1950358098E-01   0.7542685881E-04  -0.5451417986E-05   0.0000000000E+00   0.0000000000E+00   0.1206014744E-02  -0.2349872164E-01  -0.6687812069E-02   0.4047190913E-02
   0.1000769339E+00   0.0000000000E+00   0.7693287821E-04   0.0000000000E+00   0.0000000000E+00   0.0000000000E+00   0.1691136391E-02  -0.2561550369E-01  -0.7177310189E-02  -0.1495295723E-02
   0.1209119694E+00   0.0000000000E+00   0.7863943351E-04   0.0000000000E+00   0.0000000000E+00   0.0000000000E+00  -0.2462707566E-02  -0.1300265395E-01  -0.4639608456E-02  -0.2334378423E-02
   0.1218070191E+00   0.2610985623E-01   0.7615507351E-04  -0.2452469990E-05   0.0000000000E+00   0.0000000000E+00   0.1101940680E-02  -0.1095660687E-01  -0.2956399856E-02  -0.2438956299E-02
   0.2106258885E+00   0.3763233451E-01   0.8174954582E-04  -0.8982857816E-06   0.0000000000E+00   0.0000000000E+00   0.1323973034E-01   0.2061470098E-02   0.4590360130E-02  -0.3104187052E-02
   0.1905374156E+00   0.3838148974E-01   0.7950558109E-04  -0.1010656927E-05   0.0000000000E+00   0.0000000000E+00   0.1186298284E-01   0.8750765191E-03   0.3821417808E-02  -0.4018392101E-02
   0.1867889734E+00   0.1901248893E-01   0.8082144714E-04  -0.4316744644E-06   0.0000000000E+00   0.0000000000E+00   0.9388780564E-02   0.1281150691E-02   0.3200979377E-02  -0.1943714402E-02
   0.2073149104E+00   0.1873764160E-01   0.8262835652E-04  -0.3823006689E-06   0.0000000000E+00   0.0000000000E+00   0.1148457190E-01   0.2443156423E-02   0.4178318497E-02  -0.1554661616E-02
   0.1574669973E+00   0.2159329342E+00   0.4365030034E-04  -0.2451375677E-04   0.0000000000E+00   0.0000000000E+00   0.3324251526E-01  -0.7450224594E-03   0.9749247839E-02   0.8828242357E-03
   0.1564938587E+00   0.2325785830E+00   0.4118769855E-04  -0.2691903507E-04   0.0000000000E+00   0.0000000000E+00   0.3427827799E-01  -0.1527683325E-03   0.1023765290E-01   0.5428098511E-03
   0.1370145488E+00   0.2326000871E+00   0.3517776327E-04  -0.3004688042E-04   0.0000000000E+00   0.0000000000E+00   0.3351220490E-01  -0.2095067801E-03   0.9990809436E-02   0.9842022530E-03
   0.1382529269E+00   0.2157851956E+00   0.3781686955E-04  -0.2757737735E-04   0.0000000000E+00   0.0000000000E+00   0.3300060911E-01  -0.8221200765E-03   0.9653546711E-02   0.1637038844E-02
   0.0000000000E+00   0.9996633197E-01   0.0000000000E+00  -0.3366903359E-04   0.0000000000E+00   0.0000000000E+00   0.8230504918E-01  -0.1119911167E-02   0.2435554141E-01   0.1293537928E-02
   0.1952457734E-01   0.9804597607E-01   0.1554494203E-04  -0.3255053388E-04   0.0000000000E+00   0.0000000000E+00   0.7902111878E-01   0.1102086841E-02   0.2403696169E-01  -0.1259771973E-01
   0.1680475695E-01   0.1512957165E+00   0.5698149823E-05  -0.4099852418E-04   0.0000000000E+00   0.0000000000E+00   0.4077141375E-01   0.7272583463E-02   0.1441319916E-01   0.1335059646E-02
   0.0000000000E+00   0.1499584545E+00   0.0000000000E+00  -0.4155150414E-04   0.0000000000E+00   0.0000000000E+00   0.4075117632E-01   0.7902769839E-02   0.1459618385E-01   0.8978384577E-03
   0.5107343022E-01   0.1386353090E+00   0.1912011610E-04  -0.3433098815E-04   0.0000000000E+00   0.0000000000E+00   0.4241329837E-01   0.3185450656E-02   0.1367962471E-01   0.1942278073E-02
   0.4906339008E-01   0.1540232649E+00   0.1648628218E-04  -0.3671113245E-04   0.0000000000E+00   0.0000000000E+00   0.3862804814E-01   0.2939581627E-02   0.1247028893E-01   0.3454365933E-02
   0.3318662929E-01   0.1526971987E+00   0.1116459051E-04  -0.3925632961E-04   0.0000000000E+00   0.0000000000E+00   0.3985489838E-01   0.5335301407E-02   0.1355705993E-01   0.2472501061E-02
   0.3438476541E-01   0.1357026622E+00   0.1328880613E-04  -0.3712575076E-04   0.0000000000E+00   0.0000000000E+00   0.4434544906E-01   0.5461330147E-02   0.1494203376E-01   0.2808741598E-02
   0.1668980011E-01   0.1677606315E+00   0.5133811542E-05  -0.4250652602E-04   0.0000000000E+00   0.0000000000E+00   0.3628948763E-01   0.5559473683E-02   0.1255468839E-01   0.1472211500E-02
   0.0000000000E+00   0.1666236749E+00   0.0000000000E+00  -0.4299705857E-04   0.0000000000E+00   0.0000000000E+00   0.3653630457E-01   0.6176244817E-02   0.1281376482E-01   0.8116178913E-03
   0.1709635155E-01   0.1840815388E+00   0.4889148241E-05  -0.4398919893E-04   0.0000000000E+00   0.0000000000E+00   0.3332536614E-01   0.3995737512E-02   0.1119633109E-01   0.1485020345E-02
   0.3340081772E-01   0.1685660012E+00   0.1030691763E-04  -0.4089083700E-04   0.0000000000E+00   0.0000000000E+00   0.3621312196E-01   0.4196982744E-02   0.1212303141E-01   0.3272094537E-02
   0.3452323162E-01   0.1842368634E+00   0.9929520196E-05  -0.4236959591E-04   0.0000000000E+00   0.0000000000E+00   0.3345006650E-01   0.3070493159E-02   0.1095616790E-01   0.3098511686E-02
   0.1944790769E-01   0.2499500481E+00   0.3462585467E-05  -0.4995194567E-04   0.0000000000E+00   0.0000000000E+00   0.2083306203E-01   0.5240398478E-03   0.6407130563E-02   0.9033369077E-04
   0.3848636316E-01   0.2328974227E+00   0.8547463505E-05  -0.4685728939E-04   0.0000000000E+00   0.0000000000E+00   0.2521489131E-01   0.1612193561E-03   0.7612833201E-02   0.1448619933E-02
   0.3889602789E-01   0.2499516455E+00   0.7137585685E-05  -0.4835445033E-04   0.0000000000E+00   0.0000000000E+00   0.2244082201E-01   0.4489935019E-03   0.6866944655E-02   0.5221525578E-03
   0.3292639368E+00   0.0000000000E+00   0.9725576622E-04   0.0000000000E+00   0.0000000000E+00   0.0000000000E+00   0.1651886188E-01   0.4855585743E-02   0.6412334288E-02  -0.4801505187E-04
   0.3500999940E+00   0.0000000000E+00   0.1000000000E-03   0.0000000000E+00   0.0000000000E+00   0.0000000000E+00   0.1661458712E-01   0.4889658105E-02   0.6451273567E-02  -0.2997335626E-06
   0.3500999940E+00   0.1923036691E-01   0.1000000000E-03  -0.4029854447E-06   0.0000000000E+00   0.0000000000E+00   0.1680079031E-01   0.4810888347E-02   0.6483503597E-02  -0.7600166684E-06
   0.3298600815E+00   0.1871415444E-01   0.9729448259E-04  -0.3908614292E-06   0.0000000000E+00   0.0000000000E+00   0.1670822677E-01   0.4777446013E-02   0.6445701834E-02  -0.1535981155E-03
   0.3500999940E+00   0.3846067768E-01   0.1000000000E-03  -0.8622219435E-06   0.0000000000E+00   0.0000000000E+00   0.1735997608E-01   0.4576264632E-02   0.6580872215E-02  -0.5272543800E-06
   0.3303030641E+00   0.3768219122E-01   0.9723608352E-04  -0.8412759838E-06   0.0000000000E+00   0.0000000000E+00   0.1727055197E-01   0.4544213257E-02   0.6544429569E-02  -0.3195199460E-03
   0.3306556077E+00   0.5676132389E-01   0.9709865916E-04  -0.1401206987E-05   0.0000000000E+00   0.0000000000E+00   0.1818028558E-01   0.4173221517E-02   0.6706052129E-02  -0.4331078289E-03
   0.3309345636E+00   0.7595453243E-01   0.9689656644E-04  -0.2117665663E-05   0.0000000000E+00   0.0000000000E+00   0.1938574416E-01   0.3694859240E-02   0.6924181020E-02  -0.5171093951E-03
   0.3119053789E+00   0.7514341045E-01   0.9384191225E-04  -0.2102351014E-05   0.0000000000E+00   0.0000000000E+00   0.1922211014E-01   0.3577524840E-02   0.6839890495E-02  -0.1029649965E-02
   0.3112391483E+00   0.5605181569E-01   0.9423030689E-04  -0.1383206530E-05   0.0000000000E+00   0.0000000000E+00   0.1796868473E-01   0.4062269296E-02   0.6609286207E-02  -0.8699041197E-03
   0.3310789883E+00   0.9525297311E-01   0.9663127903E-04  -0.3027688353E-05   0.0000000000E+00   0.0000000000E+00   0.2083161833E-01   0.3149928136E-02   0.7194463940E-02  -0.5633824804E-03
   0.3122819821E+00   0.9439759998E-01   0.9332711678E-04  -0.3022022169E-05   0.0000000000E+00   0.0000000000E+00   0.2070781169E-01   0.3022256175E-02   0.7119020359E-02  -0.1112222579E-02
   0.3310651041E+00   0.1147054019E+00   0.9630706477E-04  -0.4162075245E-05   0.0000000000E+00   0.0000000000E+00   0.2244900635E-01   0.2567129483E-02   0.7504840750E-02  -0.5783835225E-03
   0.3309236217E+00   0.1342695007E+00   0.9593865958E-04  -0.5533332258E-05   0.0000000000E+00   0.0000000000E+00   0.2416257407E-01   0.1996654892E-02   0.7847768687E-02  -0.5550746215E-03
   0.3118897671E+00   0.1337880872E+00   0.9191013147E-04  -0.5594770798E-05   0.0000000000E+00   0.0000000000E+00   0.2417402442E-01   0.1858040439E-02   0.7809619458E-02  -0.1079340059E-02
   0.3122786832E+00   0.1139313461E+00   0.9268017699E-04  -0.4176867739E-05   0.0000000000E+00   0.0000000000E+00   0.2238747594E-01   0.2443992926E-02   0.7449440661E-02  -0.1131456413E-02
   0.2890875252E+00   0.1826379753E-01   0.9196117351E-04  -0.3750689280E-06   0.0000000000E+00   0.0000000000E+00   0.1595726763E-01   0.4482822123E-02   0.6132026926E-02  -0.4786205643E-03
   0.2875918883E+00   0.0000000000E+00   0.9189428121E-04   0.0000000000E+00   0.0000000000E+00   0.0000000000E+00   0.1571615942E-01   0.4564817714E-02   0.6084293141E-02  -0.1494492449E-03
   0.3084278796E+00   0.0000000000E+00   0.9454258327E-04   0.0000000000E+00   0.0000000000E+00   0.0000000000E+00   0.1622535124E-01   0.4749158862E-02   0.6292353031E-02  -0.9631358763E-04
   0.3094822243E+00   0.1840587147E-01   0.9460030131E-04  -0.3818329842E-06   0.0000000000E+00   0.0000000000E+00   0.1642921349E-01   0.4671641395E-02   0.6330256467E-02  -0.3103399421E-03
   0.2122731817E+00   0.1636790621E+00   0.6596868469E-04  -0.1154992649E-04   0.0000000000E+00   0.0000000000E+00   0.2880582382E-01  -0.9801857903E-03   0.8347691409E-02  -0.1915003267E-02
   0.2163775626E+00   0.1467599476E+00   0.6907361072E-04  -0.9307447598E-05   0.0000000000E+00   0.0000000000E+00   0.2708109169E-01  -0.9140857674E-03   0.7850101777E-02  -0.2654623934E-02
   0.2310276627E+00   0.1467271388E+00   0.7268771761E-04  -0.8559206895E-05   0.0000000000E+00   0.0000000000E+00   0.2663087145E-01  -0.3537816821E-03   0.7883126931E-02  -0.2486553617E-02
   0.2322203627E+00   0.1630948785E+00   0.7125370190E-04  -0.1029650028E-04   0.0000000000E+00   0.0000000000E+00   0.2815609150E-01  -0.3856744049E-03   0.8331125128E-02  -0.1968662431E-02
   0.2278501624E+00   0.1845672373E-01   0.8470643691E-04  -0.3685705905E-06   0.0000000000E+00   0.0000000000E+00   0.1308820016E-01   0.3227509858E-02   0.4894713006E-02  -0.1192592148E-02
   0.2307024032E+00   0.3704732382E-01   0.8412024927E-04  -0.8409784474E-06   0.0000000000E+00   0.0000000000E+00   0.1439898825E-01   0.2898564680E-02   0.5189265880E-02  -0.2395020801E-02
   0.1834144590E+00   0.0000000000E+00   0.8112196849E-04   0.0000000000E+00   0.0000000000E+00   0.0000000000E+00   0.8539342159E-02   0.1361410939E-02   0.2970225929E-02  -0.6455354609E-03
   0.2042494456E+00   0.0000000000E+00   0.8277955786E-04   0.0000000000E+00   0.0000000000E+00   0.0000000000E+00   0.1073610462E-01   0.2551994935E-02   0.3986429867E-02  -0.5180159376E-03
   0.1417457082E+00   0.0000000000E+00   0.7904223865E-04   0.0000000000E+00   0.0000000000E+00   0.0000000000E+00   0.1873920121E-02  -0.3357899045E-02  -0.4451936772E-03  -0.1562858368E-02
   0.1457476589E+00   0.2098070366E-01   0.7797485480E-04  -0.8577364003E-06   0.0000000000E+00   0.0000000000E+00   0.4059454396E-02  -0.3449616868E-02   0.1829512582E-03  -0.2743515902E-02
   0.3500999940E+00   0.2499822506E+00   0.1000000000E-03  -0.1774936409E-04   0.0000000000E+00   0.0000000000E+00   0.3278345904E-01  -0.8795380773E-04   0.9808651570E-02   0.8896641599E-04
   0.3306497198E+00   0.2499821721E+00   0.9416178989E-04  -0.1782785713E-04   0.0000000000E+00   0.0000000000E+00   0.3286803753E-01  -0.9053519057E-04   0.9833250702E-02  -0.6390636199E-04
   0.3308829703E+00   0.2310313375E+00   0.9441732407E-04  -0.1542846485E-04   0.0000000000E+00   0.0000000000E+00   0.3204082126E-01   0.1017609342E-03   0.9642774659E-02  -0.1627915186E-03
   0.3500999940E+00   0.2307539086E+00   0.1000000000E-03  -0.1532343037E-04   0.0000000000E+00   0.0000000000E+00   0.3196413326E-01   0.1034305636E-03   0.9620269146E-02   0.8104858324E-04
   0.2730969627E+00   0.2316488370E+00   0.7738072576E-04  -0.1668497435E-04   0.0000000000E+00   0.0000000000E+00   0.3299962536E-01   0.6493135563E-04   0.9919367014E-02  -0.4443063291E-03
   0.2923456698E+00   0.2314736014E+00   0.8311581470E-04  -0.1608659865E-04   0.0000000000E+00   0.0000000000E+00   0.3258174893E-01   0.7938305624E-04   0.9798339595E-02  -0.3779101341E-03
   0.2917490187E+00   0.2499815104E+00   0.8236167833E-04  -0.1848956867E-04   0.0000000000E+00   0.0000000000E+00   0.3352372366E-01  -0.1116453714E-03   0.1002362349E-01  -0.1027022698E-03
   0.2722985650E+00   0.2499808849E+00   0.7634399146E-04  -0.1911512581E-04   0.0000000000E+00   0.0000000000E+00   0.3404073591E-01  -0.1309827425E-03   0.1017292595E-01  -0.1197952843E-03
   0.3500999940E+00   0.1730680553E+00   0.1000000000E-03  -0.8872720292E-05   0.0000000000E+00   0.0000000000E+00   0.2753960162E-01   0.1033390143E-02   0.8571897529E-02   0.5554655404E-04
   0.3308733753E+00   0.1733053713E+00   0.9525332175E-04  -0.8946681315E-05   0.0000000000E+00   0.0000000000E+00   0.2758221273E-01   0.9966424616E-03   0.8573656557E-02  -0.4500382427E-03
   0.3308652715E+00   0.1538402165E+00   0.9558350881E-04  -0.7135487867E-05   0.0000000000E+00   0.0000000000E+00   0.2588764955E-01   0.1466991414E-02   0.8206392289E-02  -0.5120577466E-03
   0.3500999940E+00   0.1538390670E+00   0.1000000000E-03  -0.7092969895E-05   0.0000000000E+00   0.0000000000E+00   0.2586402845E-01   0.1509769411E-02   0.8212139358E-02   0.4843767996E-04
   0.3500999940E+00   0.1346098632E+00   0.1000000000E-03  -0.5527779702E-05   0.0000000000E+00   0.0000000000E+00   0.2415918901E-01   0.2040549758E-02   0.7859921629E-02   0.3378083916E-04
   0.3500999940E+00   0.1153804321E+00   0.1000000000E-03  -0.4183864768E-05   0.0000000000E+00   0.0000000000E+00   0.2248028622E-01   0.2610695595E-02   0.7527294546E-02   0.2494227153E-04
   0.3500999940E+00   0.9615078549E-01   0.1000000000E-03  -0.3062406253E-05   0.0000000000E+00   0.0000000000E+00   0.2088580822E-01   0.3185411435E-02   0.7221365897E-02   0.1358295426E-04
   0.3500999940E+00   0.7692092770E-01   0.1000000000E-03  -0.2152100116E-05   0.0000000000E+00   0.0000000000E+00   0.1945672846E-01   0.3731599243E-02   0.6956498309E-02   0.7390249537E-05
   0.3500999940E+00   0.5769087762E-01   0.1000000000E-03  -0.1430381861E-05   0.0000000000E+00   0.0000000000E+00   0.1826089865E-01   0.4206023068E-02   0.6740076514E-02   0.1754111158E-05
   0.0000000000E+00   0.2499494964E+00   0.0000000000E+00  -0.5050356251E-04   0.0000000000E+00   0.0000000000E+00   0.2026619680E-01   0.5525681377E-03   0.6245629480E-02   0.6412850525E-03
   0.3759639010E-01   0.2161733816E+00   0.9350895581E-05  -0.4529841374E-04   0.0000000000E+00   0.0000000000E+00   0.2846523188E-01   0.1012426344E-02   0.8843297467E-02   0.2515598940E-02
   0.3620304541E-01   0.2000608975E+00   0.9737912209E-05  -0.4380150557E-04   0.0000000000E+00   0.0000000000E+00   0.3089123098E-01   0.1935704131E-02   0.9848080533E-02   0.2926816933E-02
   0.5559814586E-01   0.1985681396E+00   0.1522386172E-04  -0.4088436045E-04   0.0000000000E+00   0.0000000000E+00   0.3167917754E-01   0.9860214833E-03   0.9799559708E-02   0.3893125205E-02
   0.5752137495E-01   0.2148829515E+00   0.1463485096E-04  -0.4239749283E-04   0.0000000000E+00   0.0000000000E+00   0.2967372476E-01   0.4984276342E-03   0.9051645718E-02   0.3288595134E-02
   0.1781241804E-01   0.2003698762E+00   0.4749943638E-05  -0.4549684193E-04   0.0000000000E+00   0.0000000000E+00   0.3050141950E-01   0.2504667638E-02   0.9901826141E-02   0.1365198660E-02
   0.5821143435E-01   0.2322739326E+00   0.1330644565E-04  -0.4415538651E-04   0.0000000000E+00   0.0000000000E+00   0.2694293259E-01   0.6799099906E-04   0.8103277075E-02   0.1844333831E-02
   0.1555940111E+00   0.2499705617E+00   0.3845011442E-04  -0.2943834087E-04   0.0000000000E+00   0.0000000000E+00   0.3533892550E-01  -0.2054656439E-03   0.1054003796E-01   0.2027828200E-03
   0.1361433499E+00   0.2499674871E+00   0.3223990286E-04  -0.3251293314E-04   0.0000000000E+00   0.0000000000E+00   0.3420979065E-01  -0.1565025266E-03   0.1021598644E-01   0.3370564166E-03
   0.1750448168E+00   0.2499732489E+00   0.4481981960E-04  -0.2675110907E-04   0.0000000000E+00   0.0000000000E+00   0.3588896838E-01  -0.2198221679E-03   0.1070074386E-01   0.8360349687E-04
   0.1759714373E+00   0.2324719092E+00   0.4730031032E-04  -0.2420383631E-04   0.0000000000E+00   0.0000000000E+00   0.3462526745E-01  -0.1123820006E-03   0.1035386564E-01   0.1657342521E-03
   0.2250847297E+00   0.0000000000E+00   0.8473573879E-04   0.0000000000E+00   0.0000000000E+00   0.0000000000E+00   0.1255206211E-01   0.3360709946E-02   0.4773831617E-02  -0.3836620732E-03
   0.2459202826E+00   0.0000000000E+00   0.8694555199E-04   0.0000000000E+00   0.0000000000E+00   0.0000000000E+00   0.1393053556E-01   0.3896334750E-02   0.5348061093E-02  -0.2884906150E-03
   0.2483333257E+00   0.1834206017E-01   0.8698367197E-04  -0.3677315416E-06   0.0000000000E+00   0.0000000000E+00   0.1433103353E-01   0.3795857868E-02   0.5438067419E-02  -0.9039005738E-03
   0.1966059792E+00   0.1994971520E+00   0.5741318538E-04  -0.1743102100E-04   0.0000000000E+00   0.0000000000E+00   0.3195067691E-01  -0.8177354198E-03   0.9339882448E-02  -0.5997205562E-03
   0.2156221885E+00   0.1983766317E+00   0.6306349333E-04  -0.1562525416E-04   0.0000000000E+00   0.0000000000E+00   0.3143744424E-01  -0.4760143398E-03   0.9288428969E-02  -0.9906374199E-03
   0.2156034282E+00   0.2151202689E+00   0.6138019269E-04  -0.1777905929E-04   0.0000000000E+00   0.0000000000E+00   0.3272664180E-01  -0.2774746974E-03   0.9734750132E-02  -0.6662348029E-03
   0.1962782232E+00   0.2156017237E+00   0.5551522684E-04  -0.1959826074E-04   0.0000000000E+00   0.0000000000E+00   0.3307536736E-01  -0.4497806687E-03   0.9787676009E-02  -0.3112672639E-03
   0.1175472421E+00   0.2324035084E+00   0.2936813544E-04  -0.3349159984E-04   0.0000000000E+00   0.0000000000E+00   0.3232177740E-01  -0.2087464427E-03   0.9633909287E-02   0.1453243245E-02
   0.1189126894E+00   0.2152167284E+00   0.3205942906E-04  -0.3097760583E-04   0.0000000000E+00   0.0000000000E+00   0.3252826718E-01  -0.8422533033E-03   0.9505804163E-02   0.2456923490E-02
   0.2139465390E+00   0.2499773816E+00   0.5765497807E-04  -0.2261838664E-04   0.0000000000E+00   0.0000000000E+00   0.3568661247E-01  -0.2019815568E-03   0.1064538927E-01  -0.7271962459E-04
   0.1944956956E+00   0.2499755202E+00   0.5124757905E-04  -0.2447982988E-04   0.0000000000E+00   0.0000000000E+00   0.3596017194E-01  -0.2186216016E-03   0.1072246510E-01  -0.7226422856E-05
   0.1954885835E+00   0.2323971225E+00   0.5344645980E-04  -0.2193649935E-04   0.0000000000E+00   0.0000000000E+00   0.3462562252E-01  -0.6360400463E-04   0.1036860555E-01  -0.1282437644E-03
   0.2149717069E+00   0.2322636290E+00   0.5956091670E-04  -0.2009701315E-04   0.0000000000E+00   0.0000000000E+00   0.3436481684E-01  -0.1751159626E-04   0.1030419157E-01  -0.3297387344E-03
   0.2343997959E+00   0.2319349514E+00   0.6560992661E-04  -0.1862458004E-04   0.0000000000E+00   0.0000000000E+00   0.3394690064E-01   0.1684632080E-04   0.1018912409E-01  -0.4417099743E-03
   0.2537685508E+00   0.2318065844E+00   0.7154276538E-04  -0.1751558146E-04   0.0000000000E+00   0.0000000000E+00   0.3346628692E-01   0.4331934467E-04   0.1005288188E-01  -0.4731005342E-03
   0.2528480070E+00   0.2499800178E+00   0.7022204219E-04  -0.1998223542E-04   0.0000000000E+00   0.0000000000E+00   0.3462546115E-01  -0.1537642353E-03   0.1034150907E-01  -0.1225646068E-03
   0.2333973230E+00   0.2499788654E+00   0.6398904843E-04  -0.2113462700E-04   0.0000000000E+00   0.0000000000E+00   0.3520166211E-01  -0.1794634874E-03   0.1050665959E-01  -0.1090324102E-03
   0.3111994143E+00   0.2499819306E+00   0.8829227617E-04  -0.1806943652E-04   0.0000000000E+00   0.0000000000E+00   0.3312266764E-01  -0.9771246821E-04   0.9907486551E-02  -0.6971324422E-04
   0.3115913008E+00   0.2312565453E+00   0.8878477741E-04  -0.1567571910E-04   0.0000000000E+00   0.0000000000E+00   0.3225270070E-01   0.9130404563E-04   0.9703201424E-02  -0.2630679516E-03
   0.5560086448E-01   0.8312054518E-01   0.4384078314E-04  -0.2641432441E-04   0.0000000000E+00   0.0000000000E+00   0.3271256777E-01   0.1076464577E-01   0.1304316406E-01  -0.2032048474E-01
   0.7197072348E-01   0.9411875695E-01   0.4079927812E-04  -0.2236124724E-04   0.0000000000E+00   0.0000000000E+00   0.3478693374E-01   0.2179183381E-02   0.1108983514E-01  -0.8228844630E-02
   0.6202007817E-01   0.1069611831E+00   0.3197027126E-04  -0.2722492404E-04   0.0000000000E+00   0.0000000000E+00   0.4137029706E-01   0.3793776941E-02   0.1354922220E-01  -0.4738723243E-02
   0.3829804079E-01   0.9235747194E-01   0.2969819141E-04  -0.3047996441E-04   0.0000000000E+00   0.0000000000E+00   0.5377680142E-01   0.6448068152E-02   0.1806746087E-01  -0.1625743543E-01
   0.0000000000E+00   0.1999539993E+00   0.0000000000E+00  -0.4600366550E-04   0.0000000000E+00   0.0000000000E+00   0.3038783847E-01   0.2741890412E-02   0.9938918665E-02   0.6787850334E-03
   0.0000000000E+00   0.1832888705E+00   0.0000000000E+00  -0.4446652834E-04   0.0000000000E+00   0.0000000000E+00   0.3323631839E-01   0.4367818546E-02   0.1128124108E-01   0.7261145749E-03
   0.3652402832E-01   0.1168332381E+00   0.1739042112E-04  -0.3417792424E-04   0.0000000000E+00   0.0000000000E+00   0.5202661451E-01   0.6101671690E-02   0.1743848586E-01  -0.5274628850E-02
   0.2667560292E+00   0.0000000000E+00   0.8934815860E-04   0.0000000000E+00   0.0000000000E+00   0.0000000000E+00   0.1496516180E-01   0.4289853205E-02   0.5776504500E-02  -0.2130519970E-03
   0.2687153567E+00   0.1829113951E-01   0.8941166740E-04  -0.3710889759E-06   0.0000000000E+00   0.0000000000E+00   0.1526913057E-01   0.4197599387E-02   0.5840018986E-02  -0.6731701247E-03
   0.2366062546E+00   0.7431382140E-01   0.8185162967E-04  -0.2374700643E-05   0.0000000000E+00   0.0000000000E+00   0.1827017606E-01   0.1766453850E-02   0.6010988972E-02  -0.3433986554E-02
   0.2553014356E+00   0.7383567182E-01   0.8486655996E-04  -0.2219384395E-05   0.0000000000E+00   0.0000000000E+00   0.1849613800E-01   0.2485116091E-02   0.6294376227E-02  -0.2741076039E-02
   0.3104299482E+00   0.3712613669E-01   0.9449123158E-04  -0.8254142802E-06   0.0000000000E+00   0.0000000000E+00   0.1702168779E-01   0.4438969313E-02   0.6438197131E-02  -0.6434710857E-03
   0.2905319016E+00   0.3677642452E-01   0.9178959365E-04  -0.8147786994E-06   0.0000000000E+00   0.0000000000E+00   0.1662506244E-01   0.4240762153E-02   0.6259747378E-02  -0.9899270026E-03
   0.3500999940E+00   0.2115254523E+00   0.1000000000E-03  -0.1301172471E-04   0.0000000000E+00   0.0000000000E+00   0.3061477476E-01   0.2936465668E-03   0.9272526397E-02   0.7228034784E-04
   0.3310031102E+00   0.2119677368E+00   0.9469222807E-04  -0.1312720558E-04   0.0000000000E+00   0.0000000000E+00   0.3068157966E-01   0.2770643856E-03   0.9287593213E-02  -0.2906478906E-03
   0.3309379882E+00   0.1926906850E+00   0.9495715751E-04  -0.1095298268E-04   0.0000000000E+00   0.0000000000E+00   0.2920538034E-01   0.6043896835E-03   0.8942931006E-02  -0.3785645074E-03
   0.3500999940E+00   0.1922968440E+00   0.1000000000E-03  -0.1085202601E-04   0.0000000000E+00   0.0000000000E+00   0.2914701342E-01   0.6247091653E-03   0.8931516776E-02   0.6742778920E-04
   0.2926466791E+00   0.2126702849E+00   0.8392608688E-04  -0.1376511288E-04   0.0000000000E+00   0.0000000000E+00   0.3112125228E-01   0.1832415292E-03   0.9391348144E-02  -0.7205718759E-03
   0.2735824131E+00   0.2131290105E+00   0.7848413603E-04  -0.1435346486E-04   0.0000000000E+00   0.0000000000E+00   0.3146641083E-01   0.9911009096E-04   0.9469656275E-02  -0.8654789372E-03
   0.2734350629E+00   0.1942603739E+00   0.7954890255E-04  -0.1212910691E-04   0.0000000000E+00   0.0000000000E+00   0.2994969084E-01   0.2617586081E-03   0.9063434834E-02  -0.1157509812E-02
   0.2925036595E+00   0.1934352436E+00   0.8473248004E-04  -0.1154141122E-04   0.0000000000E+00   0.0000000000E+00   0.2962639012E-01   0.4051851216E-03   0.9009472571E-02  -0.9772786125E-03
   0.1944840926E+00   0.5816820027E-01   0.7747864881E-04  -0.1917131172E-05   0.0000000000E+00   0.0000000000E+00   0.1504930898E-01   0.1641064020E-03   0.4564024615E-02  -0.4835449041E-02
   0.2141742374E+00   0.5661194293E-01   0.8035842707E-04  -0.1640174695E-05   0.0000000000E+00   0.0000000000E+00   0.1559985583E-01   0.1445976405E-02   0.5113749671E-02  -0.3892179680E-02
   0.7320788021E-01   0.1305641604E+00   0.2891091069E-04  -0.2790255024E-04   0.0000000000E+00   0.0000000000E+00   0.3918474626E-01  -0.8675912337E-03   0.1149514651E-01   0.1129224455E-02
   0.5551193428E-01   0.1224444547E+00   0.2431268153E-04  -0.3100530579E-04   0.0000000000E+00   0.0000000000E+00   0.4416479251E-01   0.1572225195E-02   0.1372110531E-01  -0.1676852572E-02
   0.8081227836E-01   0.1172524696E+00   0.3505795766E-04  -0.2361740038E-04   0.0000000000E+00   0.0000000000E+00   0.3683557804E-01  -0.3336286920E-02   0.1004978733E-01  -0.1139442863E-02
   0.5834452858E-01   0.2499541122E+00   0.1119497813E-04  -0.4588782119E-04   0.0000000000E+00   0.0000000000E+00   0.2477826689E-01   0.3251084072E-03   0.7531012590E-02   0.5829392441E-03
   0.7820910586E-01   0.2133820341E+00   0.2044806266E-04  -0.3859587427E-04   0.0000000000E+00   0.0000000000E+00   0.3080199556E-01   0.2023713765E-04   0.9246669809E-02   0.3547215309E-02
   0.7801867900E-01   0.1933982250E+00   0.2217920059E-04  -0.3614804198E-04   0.0000000000E+00   0.0000000000E+00   0.3290922843E-01  -0.2057619031E-03   0.9811039958E-02   0.4242817241E-02
   0.1768060172E+00   0.2157777671E+00   0.4957521788E-04  -0.2183286454E-04   0.0000000000E+00   0.0000000000E+00   0.3326024037E-01  -0.6142272267E-03   0.9793803944E-02   0.2140284130E-03