 VARIABLES = X,Y,Z,DU1,DU2,DU3,U1,U2,U3,S11,S22,S33,S12,S13,S23
 ZONE, T="0.1000D-01" F=FEPOINT, I=   12 J=    2 ET=BRICK
   0.0000000000E+00   0.0000000000E+00   0.0000000000E+00   0.0000000000E+00   0.0000000000E+00   0.0000000000E+00   0.0000000000E+00   0.0000000000E+00   0.0000000000E+00   0.0000000000E+00   0.0000000000E+00   0.0000000000E+00   0.0000000000E+00   0.0000000000E+00   0.0000000000E+00
   0.1000000000E+01   0.0000000000E+00   0.0000000000E+00   0.0000000000E+00   0.0000000000E+00   0.0000000000E+00   0.0000000000E+00   0.0000000000E+00   0.0000000000E+00   0.7408226459E-01   0.3648827958E-01   0.3648827958E-01   0.0000000000E+00   0.2051786282E-18   0.0000000000E+00
   0.1000000000E+01   0.1000000000E+01   0.0000000000E+00   0.0000000000E+00   0.0000000000E+00   0.0000000000E+00   0.0000000000E+00   0.0000000000E+00   0.0000000000E+00   0.7408226459E-01   0.3648827957E-01   0.3648827957E-01   0.0000000000E+00   0.5497744944E-19   0.0000000000E+00
   0.0000000000E+00   0.1000000000E+01   0.0000000000E+00   0.0000000000E+00   0.0000000000E+00   0.0000000000E+00   0.0000000000E+00   0.0000000000E+00   0.0000000000E+00   0.0000000000E+00   0.0000000000E+00   0.0000000000E+00   0.0000000000E+00   0.0000000000E+00   0.0000000000E+00
   0.0000000000E+00   0.0000000000E+00   0.1000000000E+01   0.0000000000E+00   0.0000000000E+00   0.0000000000E+00   0.0000000000E+00   0.0000000000E+00   0.0000000000E+00   0.0000000000E+00   0.0000000000E+00   0.0000000000E+00   0.0000000000E+00   0.0000000000E+00   0.0000000000E+00
   0.1000000000E+01   0.0000000000E+00   0.1000000000E+01   0.0000000000E+00   0.0000000000E+00   0.0000000000E+00   0.0000000000E+00   0.0000000000E+00   0.0000000000E+00   0.7408226459E-01   0.3648827957E-01   0.3648827957E-01   0.0000000000E+00   0.2051786282E-18   0.0000000000E+00
   0.1000000000E+01   0.1000000000E+01   0.1000000000E+01   0.0000000000E+00   0.0000000000E+00   0.0000000000E+00   0.0000000000E+00   0.0000000000E+00   0.0000000000E+00   0.7408226459E-01   0.3648827957E-01   0.3648827957E-01   0.0000000000E+00   0.5497744944E-19   0.0000000000E+00
   0.0000000000E+00   0.1000000000E+01   0.1000000000E+01   0.0000000000E+00   0.0000000000E+00   0.0000000000E+00   0.0000000000E+00   0.0000000000E+00   0.0000000000E+00   0.0000000000E+00   0.0000000000E+00   0.0000000000E+00   0.0000000000E+00   0.0000000000E+00   0.0000000000E+00
   0.2000100000E+01   0.0000000000E+00   0.0000000000E+00   0.1000000000E-03   0.0000000000E+00   0.0000000000E+00   0.0000000000E+00   0.0000000000E+00   0.0000000000E+00   0.1481645292E+00   0.7297655915E-01   0.7297655915E-01   0.0000000000E+00   0.8453454132E-18   0.0000000000E+00
   0.2000100000E+01   0.1000000000E+01   0.0000000000E+00   0.1000000000E-03   0.0000000000E+00   0.0000000000E+00   0.0000000000E+00   0.0000000000E+00   0.0000000000E+00   0.1481645292E+00   0.7297655915E-01   0.7297655915E-01   0.0000000000E+00   0.2265096278E-18   0.0000000000E+00
   0.2000100000E+01   0.0000000000E+00   0.1000000000E+01   0.1000000000E-03   0.0000000000E+00   0.0000000000E+00   0.0000000000E+00   0.0000000000E+00   0.0000000000E+00   0.1481645292E+00   0.7297655915E-01   0.7297655915E-01   0.0000000000E+00   0.8453454132E-18   0.0000000000E+00
   0.2000100000E+01   0.1000000000E+01   0.1000000000E+01   0.1000000000E-03   0.0000000000E+00   0.0000000000E+00   0.0000000000E+00   0.0000000000E+00   0.0000000000E+00   0.1481645292E+00   0.7297655914E-01   0.7297655914E-01   0.0000000000E+00   0.2265096278E-18   0.0000000000E+00
     1     2     3     4     5     6     7     8
     2     9    10     3     6    11    12     7
 VARIABLES = X,Y,Z,DU1,DU2,DU3,U1,U2,U3,S11,S22,S33,S12,S13,S23
 ZONE, T="0.2000D-01" F=FEPOINT, I=   12 J=    2 ET=BRICK
   0.0000000000E+00   0.0000000000E+00   0.0000000000E+00   0.0000000000E+00   0.0000000000E+00   0.0000000000E+00   0.0000000000E+00   0.0000000000E+00   0.0000000000E+00   0.1957480086E-02   0.1210358679E-04  -0.2622443853E-03  -0.1371739860E-03   0.1371739786E-03  -0.3309703365E-19
   0.1000002222E+01   0.0000000000E+00   0.1094648387E-05   0.2222467938E-05   0.0000000000E+00   0.1094648387E-05   0.0000000000E+00   0.0000000000E+00   0.0000000000E+00   0.1457680190E+00   0.6975700507E-01   0.6893396117E-01  -0.1371739860E-03   0.1371739786E-03  -0.5114632001E-19
   0.1000002222E+01   0.9999989054E+00   0.1094648387E-05   0.2222467938E-05  -0.1094648387E-05   0.1094648387E-05   0.0000000000E+00   0.0000000000E+00   0.0000000000E+00   0.1457680190E+00   0.6975700506E-01   0.6893396116E-01  -0.2743479647E-03   0.1371739786E-03   0.5312649819E-14
   0.0000000000E+00   0.1000000000E+01   0.0000000000E+00   0.0000000000E+00   0.0000000000E+00   0.0000000000E+00   0.0000000000E+00   0.0000000000E+00   0.0000000000E+00   0.1957480086E-02   0.1210358680E-04  -0.2622443852E-03  -0.2743479647E-03   0.1371739786E-03   0.1770863035E-14
   0.0000000000E+00   0.0000000000E+00   0.1000000000E+01   0.0000000000E+00   0.0000000000E+00   0.0000000000E+00   0.0000000000E+00   0.0000000000E+00   0.0000000000E+00   0.1957480086E-02   0.1210358680E-04  -0.2622443853E-03  -0.1371739860E-03  -0.1371739786E-03   0.3541773107E-14
   0.1000002222E+01   0.0000000000E+00   0.9999989054E+00   0.2222467938E-05   0.0000000000E+00  -0.1094648387E-05   0.0000000000E+00   0.0000000000E+00   0.0000000000E+00   0.1457680190E+00   0.6975700506E-01   0.6893396116E-01  -0.1371739860E-03  -0.1371739786E-03   0.1062537119E-13
   0.1000002222E+01   0.9999989054E+00   0.9999989054E+00   0.2222467938E-05  -0.1094648387E-05  -0.1094648387E-05   0.0000000000E+00   0.0000000000E+00   0.0000000000E+00   0.1457680190E+00   0.6975700506E-01   0.6893396116E-01  -0.2743479647E-03  -0.1371739786E-03   0.1593805995E-13
   0.0000000000E+00   0.1000000000E+01   0.1000000000E+01   0.0000000000E+00   0.0000000000E+00   0.0000000000E+00   0.0000000000E+00   0.0000000000E+00   0.0000000000E+00   0.1957480086E-02   0.1210358681E-04  -0.2622443852E-03  -0.2743479647E-03  -0.1371739786E-03   0.5312669846E-14
   0.2000200000E+01   0.0000000000E+00   0.2189296775E-05   0.1000000000E-03   0.0000000000E+00   0.2189296775E-05   0.1000000000E-03   0.0000000000E+00   0.0000000000E+00   0.2895785579E+00   0.1395019065E+00   0.1381301667E+00  -0.1371739860E-03   0.1371739786E-03   0.4167522601E-19
   0.2000200000E+01   0.9999978107E+00   0.2189296774E-05   0.1000000000E-03  -0.2189296774E-05   0.2189296774E-05   0.1000000000E-03   0.0000000000E+00   0.0000000000E+00   0.2895785579E+00   0.1395019065E+00   0.1381301667E+00  -0.2743479646E-03   0.1371739786E-03   0.8854604333E-14
   0.2000200000E+01   0.0000000000E+00   0.9999978107E+00   0.1000000000E-03   0.0000000000E+00  -0.2189296774E-05   0.1000000000E-03   0.0000000000E+00   0.0000000000E+00   0.2895785579E+00   0.1395019065E+00   0.1381301667E+00  -0.1371739860E-03  -0.1371739786E-03   0.1770905241E-13
   0.2000200000E+01   0.9999978107E+00   0.9999978107E+00   0.1000000000E-03  -0.2189296774E-05  -0.2189296774E-05   0.1000000000E-03   0.0000000000E+00   0.0000000000E+00   0.2895785579E+00   0.1395019065E+00   0.1381301667E+00  -0.2743479646E-03  -0.1371739786E-03   0.2656361399E-13
     1     2     3     4     5     6     7     8
     2     9    10     3     6    11    12     7
 VARIABLES = X,Y,Z,DU1,DU2,DU3,U1,U2,U3,S11,S22,S33,S12,S13,S23
 ZONE, T="0.3000D-01" F=FEPOINT, I=   12 J=    2 ET=BRICK
   0.0000000000E+00   0.0000000000E+00   0.0000000000E+00   0.0000000000E+00   0.0000000000E+00   0.0000000000E+00   0.0000000000E+00   0.0000000000E+00   0.0000000000E+00   0.7113826183E-02   0.1035301831E-03  -0.8590133874E-03  -0.4882437345E-03   0.4876167889E-03  -0.6269193212E-06
   0.1000008008E+01   0.0000000000E+00   0.3892432814E-05   0.5785673411E-05   0.0000000000E+00   0.2797784426E-05   0.2222467938E-05   0.0000000000E+00   0.1094648387E-05   0.2137067290E+00   0.9797956780E-01   0.9507117802E-01  -0.4866966596E-03   0.4879302485E-03  -0.1567298346E-06
   0.1000008020E+01   0.9999960829E+00   0.3892432814E-05   0.5798019069E-05  -0.2822475743E-05   0.2797784426E-05   0.2222467938E-05  -0.1094648387E-05   0.1094648387E-05   0.2137066767E+00   0.9797951555E-01   0.9507128251E-01  -0.9764874427E-03   0.4880869783E-03  -0.1567298157E-06
   0.0000000000E+00   0.9999999914E+00  -0.3752112199E-08   0.0000000000E+00  -0.8593546544E-08  -0.3752112199E-08   0.0000000000E+00   0.0000000000E+00   0.0000000000E+00   0.7115679976E-02   0.1022898267E-03  -0.8596268244E-03  -0.9780345176E-03   0.4879302485E-03  -0.6269193149E-06
   0.0000000000E+00   0.0000000000E+00   0.1000000004E+01   0.0000000000E+00   0.0000000000E+00   0.3752112198E-08   0.0000000000E+00   0.0000000000E+00   0.0000000000E+00   0.7113826183E-02   0.1035301831E-03  -0.8590133874E-03  -0.4882437345E-03  -0.4885571679E-03  -0.3134596566E-06
   0.1000008008E+01   0.0000000000E+00   0.9999961076E+00   0.5785673411E-05   0.0000000000E+00  -0.2797784426E-05   0.2222467938E-05   0.0000000000E+00  -0.1094648387E-05   0.2137067290E+00   0.9797956780E-01   0.9507117802E-01  -0.4866966596E-03  -0.4884004381E-03  -0.7836488184E-07
   0.1000008020E+01   0.9999960829E+00   0.9999961076E+00   0.5798019069E-05  -0.2822475743E-05  -0.2797784426E-05   0.2222467938E-05  -0.1094648387E-05  -0.1094648387E-05   0.2137066767E+00   0.9797951555E-01   0.9507128250E-01  -0.9764874426E-03  -0.4883220731E-03  -0.7836486293E-07
   0.0000000000E+00   0.9999999914E+00   0.1000000004E+01   0.0000000000E+00  -0.8593546544E-08   0.3752112198E-08   0.0000000000E+00   0.0000000000E+00   0.0000000000E+00   0.7115679976E-02   0.1022898267E-03  -0.8596268244E-03  -0.9780345176E-03  -0.4884004380E-03  -0.3134596503E-06
   0.2000300000E+01   0.0000000000E+00   0.7788617740E-05   0.1000000000E-03   0.0000000000E+00   0.5599320965E-05   0.2000000000E-03   0.0000000000E+00   0.2189296775E-05   0.4202998407E+00   0.1958558144E+00   0.1910009515E+00  -0.4882437345E-03   0.4882437082E-03  -0.1233047934E-15
   0.2000300000E+01   0.9999921743E+00   0.7788617739E-05   0.1000000000E-03  -0.5636357940E-05   0.5599320965E-05   0.2000000000E-03  -0.2189296774E-05   0.2189296774E-05   0.4202977779E+00   0.1958568458E+00   0.1910019829E+00  -0.9780345176E-03   0.4882437082E-03   0.3138959235E-13
   0.2000300000E+01   0.0000000000E+00   0.9999922114E+00   0.1000000000E-03   0.0000000000E+00  -0.5599320965E-05   0.2000000000E-03   0.0000000000E+00  -0.2189296774E-05   0.4202998407E+00   0.1958558144E+00   0.1910009515E+00  -0.4882437345E-03  -0.4882437082E-03   0.6262986804E-13
   0.2000300000E+01   0.9999921743E+00   0.9999922114E+00   0.1000000000E-03  -0.5636357940E-05  -0.5599320965E-05   0.2000000000E-03  -0.2189296774E-05  -0.2189296774E-05   0.4202977779E+00   0.1958568458E+00   0.1910019829E+00  -0.9780345175E-03  -0.4882437082E-03   0.9414275449E-13
     1     2     3     4     5     6     7     8
     2     9    10     3     6    11    12     7
 VARIABLES = X,Y,Z,DU1,DU2,DU3,U1,U2,U3,S11,S22,S33,S12,S13,S23
 ZONE, T="0.4000D-01" F=FEPOINT, I=   12 J=    2 ET=BRICK
   0.0000000000E+00   0.0000000000E+00   0.0000000000E+00   0.0000000000E+00   0.0000000000E+00   0.0000000000E+00   0.0000000000E+00   0.0000000000E+00   0.0000000000E+00   0.1662413775E-01   0.4085366428E-03  -0.1743046142E-02  -0.1111562876E-02   0.1108679169E-02  -0.2898088926E-05
   0.1000018520E+01   0.0000000000E+00   0.8853017671E-05   0.1051217156E-04   0.0000000000E+00   0.4960584857E-05   0.8008141349E-05   0.0000000000E+00   0.3892432814E-05   0.2768518330E+00   0.1197229467E+00   0.1131616375E+00  -0.1103491480E-02   0.1110129409E-02  -0.7222720609E-06
   0.1000018585E+01   0.9999910186E+00   0.8853025507E-05   0.1056424152E-04  -0.5064295469E-05   0.4960592694E-05   0.8020487007E-05  -0.3917124131E-05   0.3892432814E-05   0.2768515917E+00   0.1197227054E+00   0.1131621201E+00  -0.2223126575E-02   0.1110854806E-02  -0.7210935980E-06
   0.0000000000E+00   0.9999999533E+00  -0.1738561003E-07   0.0000000000E+00  -0.3814826627E-07  -0.1363349783E-07   0.0000000000E+00  -0.8593546544E-08  -0.3752112199E-08   0.1663392982E-01   0.4021850357E-03  -0.1746486602E-02  -0.2231197529E-02   0.1110130177E-02  -0.2895437467E-05
   0.0000000000E+00   0.0000000000E+00   0.1000000017E+01   0.0000000000E+00   0.0000000000E+00   0.1360569093E-07   0.0000000000E+00   0.0000000000E+00   0.3752112198E-08   0.1662413795E-01   0.4085391961E-03  -0.1743048891E-02  -0.1111564054E-02  -0.1113024782E-02  -0.1442515649E-05
   0.1000018520E+01   0.0000000000E+00   0.9999911470E+00   0.1051218567E-04   0.0000000000E+00  -0.4960577804E-05   0.8008141348E-05   0.0000000000E+00  -0.3892432814E-05   0.2768518322E+00   0.1197229483E+00   0.1131616367E+00  -0.1103492659E-02  -0.1112299564E-02  -0.3603012413E-06
   0.1000018585E+01   0.9999910186E+00   0.9999911470E+00   0.1056424857E-04  -0.5064288416E-05  -0.4960578588E-05   0.8020487006E-05  -0.3917124130E-05  -0.3892432813E-05   0.2768515909E+00   0.1197227070E+00   0.1131621193E+00  -0.2223128343E-02  -0.1111939442E-02  -0.3591227785E-06
   0.0000000000E+00   0.9999999533E+00   0.1000000017E+01   0.0000000000E+00  -0.3812005490E-07   0.1364760351E-07   0.0000000000E+00  -0.8593546544E-08   0.3752112198E-08   0.1663392962E-01   0.4021877854E-03  -0.1746489155E-02  -0.2231199591E-02  -0.1112302100E-02  -0.1439864190E-05
   0.2000400000E+01   0.0000000000E+00   0.1772339001E-04   0.1000000000E-03   0.0000000000E+00   0.9934772271E-05   0.3000000000E-03   0.0000000000E+00   0.7788617740E-05   0.5370804955E+00   0.2390383223E+00   0.2280643883E+00  -0.1111563760E-02   0.1111576702E-02   0.3501468578E-08
   0.2000400000E+01   0.9999820839E+00   0.1772342095E-04   0.1000000000E-03  -0.1009045443E-04   0.9934803212E-05   0.3000000000E-03  -0.7825654715E-05   0.7788617739E-05   0.5370697367E+00   0.2390437072E+00   0.2280697621E+00  -0.2231199296E-02   0.1111577078E-02   0.3796145273E-08
   0.2000400000E+01   0.0000000000E+00   0.9999822766E+00   0.1000000000E-03   0.0000000000E+00  -0.9934772271E-05   0.3000000000E-03   0.0000000000E+00  -0.7788617739E-05   0.5370804933E+00   0.2390383237E+00   0.2280643891E+00  -0.1111564349E-02  -0.1111577292E-02  -0.2028302931E-08
   0.2000400000E+01   0.9999820839E+00   0.9999822766E+00   0.1000000000E-03  -0.1009045443E-04  -0.9934803212E-05   0.3000000000E-03  -0.7825654714E-05  -0.7788617739E-05   0.5370697350E+00   0.2390437084E+00   0.2280697627E+00  -0.2231200180E-02  -0.1111579141E-02  -0.1733626236E-08
     1     2     3     4     5     6     7     8
     2     9    10     3     6    11    12     7
 VARIABLES = X,Y,Z,DU1,DU2,DU3,U1,U2,U3,S11,S22,S33,S12,S13,S23
 ZONE, T="0.5000D-01" F=FEPOINT, I=   12 J=    2 ET=BRICK
   0.0000000000E+00   0.0000000000E+00   0.0000000000E+00   0.0000000000E+00   0.0000000000E+00   0.0000000000E+00   0.0000000000E+00   0.0000000000E+00   0.0000000000E+00   0.3152668557E-01   0.1132714872E-02  -0.2734066371E-02  -0.2043004904E-02   0.2035409824E-02  -0.7694042213E-05
   0.1000034702E+01   0.0000000000E+00   0.1625776011E-04   0.1618193973E-04   0.0000000000E+00   0.7404742435E-05   0.1852031291E-04   0.0000000000E+00   0.8853017671E-05   0.3345221201E+00   0.1340276746E+00   0.1221006029E+00  -0.2017774524E-02   0.2039263539E-02  -0.1909042825E-05
   0.1000034904E+01   0.9999833424E+00   0.1625780919E-04   0.1631889943E-04  -0.7676199889E-05   0.7404783680E-05   0.1858472852E-04  -0.8981419600E-05   0.8853025507E-05   0.3345214803E+00   0.1340270348E+00   0.1221018825E+00  -0.4086015243E-02   0.2041192922E-02  -0.1901662002E-05
   0.0000000000E+00   0.9999998469E+00  -0.4631222177E-07   0.0000000000E+00  -0.1063825575E-06  -0.2892661174E-07   0.0000000000E+00  -0.4674181281E-07  -0.1738561003E-07   0.3155773626E-01   0.1113299267E-02  -0.2745701466E-02  -0.4111242851E-02   0.2039269143E-02  -0.7677417453E-05
   0.0000000000E+00   0.0000000000E+00   0.1000000046E+01   0.0000000000E+00   0.0000000000E+00   0.2876173177E-07   0.0000000000E+00   0.0000000000E+00   0.1735780312E-07   0.3152668681E-01   0.1132730874E-02  -0.2734083619E-02  -0.2043012298E-02  -0.2046938965E-02  -0.3803786797E-05
   0.1000034702E+01   0.0000000000E+00   0.9999837423E+00   0.1618201416E-04   0.0000000000E+00  -0.7404704999E-05   0.1852032701E-04   0.0000000000E+00  -0.8853010618E-05   0.3345221152E+00   0.1340276845E+00   0.1221005979E+00  -0.2017781915E-02  -0.2045011488E-02  -0.9493170328E-06
   0.1000034904E+01   0.9999833424E+00   0.9999837423E+00   0.1631893668E-04  -0.7676162810E-05  -0.7404709286E-05   0.1858473558E-04  -0.8981412547E-05  -0.8853011401E-05   0.3345214754E+00   0.1340270446E+00   0.1221018776E+00  -0.4086026331E-02  -0.2044064114E-02  -0.9419362096E-06
   0.0000000000E+00   0.9999998471E+00   0.1000000046E+01   0.0000000000E+00  -0.1062338367E-06   0.2900103178E-07   0.0000000000E+00  -0.4671360144E-07   0.1739971571E-07   0.3155773505E-01   0.1113316500E-02  -0.2745717482E-02  -0.4111255792E-02  -0.2045028166E-02  -0.3787162037E-05
   0.2000500000E+01   0.0000000000E+00   0.3256161965E-04   0.1000000000E-03   0.0000000000E+00   0.1483822964E-04   0.4000000000E-03   0.0000000000E+00   0.1772339001E-04   0.6375201267E+00   0.2669251953E+00   0.2469301392E+00  -0.2043010449E-02   0.2043098761E-02   0.2347916774E-07
   0.2000500000E+01   0.9999668378E+00   0.3256183221E-04   0.1000000000E-03  -0.1524607925E-04   0.1483841125E-04   0.4000000000E-03  -0.1791610914E-04   0.1772342095E-04   0.6374865077E+00   0.2669420426E+00   0.2469469109E+00  -0.4111253941E-02   0.2043101902E-02   0.2531694828E-07
   0.2000500000E+01   0.0000000000E+00   0.9999674384E+00   0.1000000000E-03   0.0000000000E+00  -0.1483822961E-04   0.4000000000E-03   0.0000000000E+00  -0.1772339001E-04   0.6375201132E+00   0.2669252039E+00   0.2469301441E+00  -0.2043014142E-02  -0.2043102504E-02  -0.1430174383E-07
   0.2000500000E+01   0.9999668378E+00   0.9999674382E+00   0.1000000000E-03  -0.1524607932E-04  -0.1483841128E-04   0.4000000000E-03  -0.1791610914E-04  -0.1772342095E-04   0.6374864966E+00   0.2669420500E+00   0.2469469146E+00  -0.4111259480E-02  -0.2043114861E-02  -0.1246396329E-07
     1     2     3     4     5     6     7     8
     2     9    10     3     6    11    12     7
 VARIABLES = X,Y,Z,DU1,DU2,DU3,U1,U2,U3,S11,S22,S33,S12,S13,S23
 ZONE, T="0.6000D-01" F=FEPOINT, I=   12 J=    2 ET=BRICK
   0.0000000000E+00   0.0000000000E+00   0.0000000000E+00   0.0000000000E+00   0.0000000000E+00   0.0000000000E+00   0.0000000000E+00   0.0000000000E+00   0.0000000000E+00   0.5271213362E-01   0.2545759425E-02  -0.3522423110E-02  -0.3293274816E-02   0.3278814148E-02  -0.1485232778E-04
   0.1000057246E+01   0.0000000000E+00   0.2619395509E-04   0.2254417549E-04   0.0000000000E+00   0.9936194979E-05   0.3470225264E-04   0.0000000000E+00   0.1625776011E-04   0.3864357912E+00   0.1404527657E+00   0.1214751044E+00  -0.3232220429E-02   0.3286260049E-02  -0.3660184237E-05
   0.1000057734E+01   0.9999728426E+00   0.2619412827E-04   0.2283014453E-04  -0.1049982968E-04   0.9936319084E-05   0.3490362795E-04  -0.1665761949E-04   0.1625780919E-04   0.3864345589E+00   0.1404515334E+00   0.1214775688E+00  -0.6586569062E-02   0.3289995766E-02  -0.3634139982E-05
   0.0000000000E+00   0.9999996100E+00  -0.8986675705E-07   0.0000000000E+00  -0.2368566255E-06  -0.4355453529E-07   0.0000000000E+00  -0.1531243703E-06  -0.4631222177E-07   0.5278849239E-01   0.2499989815E-02  -0.3553012272E-02  -0.6647613646E-02   0.3286283694E-02  -0.1479358567E-04
   0.0000000000E+00   0.0000000000E+00   0.1000000089E+01   0.0000000000E+00   0.0000000000E+00   0.4297626433E-07   0.0000000000E+00   0.0000000000E+00   0.4611953489E-07   0.5271213808E-01   0.2545815935E-02  -0.3522484084E-02  -0.3293300968E-02  -0.3301038820E-02  -0.7262103933E-05
   0.1000057247E+01   0.0000000000E+00   0.9999738062E+00   0.2254440015E-04   0.0000000000E+00  -0.9936081103E-05   0.3470234117E-04   0.0000000000E+00  -0.1625771562E-04   0.3864357738E+00   0.1404528004E+00   0.1214750870E+00  -0.3232246554E-02  -0.3297313667E-02  -0.1811832150E-05
   0.1000057734E+01   0.9999728427E+00   0.9999738062E+00   0.2283025716E-04  -0.1049971827E-04  -0.9936094633E-05   0.3490367226E-04  -0.1665757536E-04  -0.1625772069E-04   0.3864345415E+00   0.1404515682E+00   0.1214775515E+00  -0.6586608259E-02  -0.3295512694E-02  -0.1785787894E-05
   0.0000000000E+00   0.9999996106E+00   0.1000000090E+01   0.0000000000E+00  -0.2364081862E-06   0.4377917067E-07   0.0000000000E+00  -0.1529474382E-06   0.4640074749E-07   0.5278848815E-01   0.2500050676E-02  -0.3553068896E-02  -0.6647659422E-02  -0.3297376403E-02  -0.7203361827E-05
   0.2000600000E+01   0.0000000000E+00   0.5247693302E-04   0.1000000000E-03   0.0000000000E+00   0.1991531337E-04   0.5000000000E-03   0.0000000000E+00   0.3256161965E-04   0.7201644227E+00   0.2783647068E+00   0.2464627229E+00  -0.3293294423E-02   0.3293640512E-02   0.9045980397E-07
   0.2000600000E+01   0.9999460748E+00   0.5247777513E-04   0.1000000000E-03  -0.2076299000E-04   0.1991594293E-04   0.5000000000E-03  -0.3316218839E-04   0.3256183221E-04   0.7200831030E+00   0.2784055154E+00   0.2465032340E+00  -0.6647652860E-02   0.3293655452E-02   0.9691148079E-07
   0.2000600000E+01   0.0000000000E+00   0.9999475231E+00   0.1000000000E-03   0.0000000000E+00  -0.1991531319E-04   0.5000000000E-03   0.0000000000E+00  -0.3256161962E-04   0.7201643748E+00   0.2783647372E+00   0.2464627404E+00  -0.3293307469E-02  -0.3293653953E-02  -0.5828942059E-07
   0.2000600000E+01   0.9999460748E+00   0.9999475222E+00   0.1000000000E-03  -0.2076299048E-04  -0.1991594311E-04   0.5000000000E-03  -0.3316218846E-04  -0.3256183223E-04   0.7200830637E+00   0.2784055415E+00   0.2465032472E+00  -0.6647672426E-02  -0.3293701371E-02  -0.5183774375E-07
     1     2     3     4     5     6     7     8
     2     9    10     3     6    11    12     7
 VARIABLES = X,Y,Z,DU1,DU2,DU3,U1,U2,U3,S11,S22,S33,S12,S13,S23
 ZONE, T="0.7000D-01" F=FEPOINT, I=   12 J=    2 ET=BRICK
   0.0000000000E+00   0.0000000000E+00   0.0000000000E+00   0.0000000000E+00   0.0000000000E+00   0.0000000000E+00   0.0000000000E+00   0.0000000000E+00   0.0000000000E+00   0.8089358644E-01   0.4962987852E-02  -0.3689737645E-02  -0.4846771348E-02   0.4825999520E-02  -0.2193883962E-04
   0.1000086577E+01   0.0000000000E+00   0.3855349052E-04   0.2933022183E-04   0.0000000000E+00   0.1235953543E-04   0.5724642814E-04   0.0000000000E+00   0.2619395509E-04   0.4327157768E+00   0.1390837679E+00   0.1115718994E+00  -0.4720892516E-02   0.4837005427E-02  -0.5341399802E-05
   0.1000087581E+01   0.9999594694E+00   0.3855393713E-04   0.2984772741E-04  -0.1337318823E-04   0.1235980886E-04   0.5773377248E-04  -0.2715744917E-04   0.2619412827E-04   0.4327139652E+00   0.1390819562E+00   0.1115755226E+00  -0.9693593132E-02   0.4842555623E-02  -0.5274234631E-05
   0.0000000000E+00   0.9999991509E+00  -0.1339914084E-06   0.0000000000E+00  -0.4591116085E-06  -0.4412465139E-07   0.0000000000E+00  -0.3899809959E-06  -0.8986675705E-07   0.8105383518E-01   0.4871428229E-02  -0.3758426762E-02  -0.9819446616E-02   0.4837080770E-02  -0.2178709269E-04
   0.0000000000E+00   0.0000000000E+00   0.1000000132E+01   0.0000000000E+00   0.0000000000E+00   0.4256876466E-07   0.0000000000E+00   0.0000000000E+00   0.8909579922E-07   0.8089359818E-01   0.4963133730E-02  -0.3689895260E-02  -0.4846838984E-02  -0.4858725435E-02  -0.1050358690E-04
   0.1000086577E+01   0.0000000000E+00   0.9999614469E+00   0.2933071889E-04   0.0000000000E+00  -0.1235928089E-04   0.5724674131E-04   0.0000000000E+00  -0.2619379672E-04   0.4327157320E+00   0.1390838574E+00   0.1115718546E+00  -0.4720960036E-02  -0.4853216746E-02  -0.2623949823E-05
   0.1000087582E+01   0.9999594698E+00   0.9999614469E+00   0.2984797713E-04  -0.1337294325E-04  -0.1235931257E-04   0.5773392942E-04  -0.2715729363E-04  -0.2619381532E-04   0.4327139204E+00   0.1390820458E+00   0.1115754779E+00  -0.9693694456E-02  -0.4850635592E-02  -0.2556784652E-05
   0.0000000000E+00   0.9999991525E+00   0.1000000135E+01   0.0000000000E+00  -0.4581208335E-06   0.4462166616E-07   0.0000000000E+00  -0.3893556244E-06   0.9017991816E-07   0.8105382444E-01   0.4871585346E-02  -0.3758573138E-02  -0.9819565029E-02  -0.4853392944E-02  -0.1035183997E-04
   0.2000700000E+01   0.0000000000E+00   0.7723845082E-04   0.1000000000E-03   0.0000000000E+00   0.2476151780E-04   0.6000000000E-03   0.0000000000E+00   0.5247693302E-04   0.7845453306E+00   0.2732118099E+00   0.2268189110E+00  -0.4846822046E-02   0.4847841983E-02   0.2615942244E-06
   0.2000700000E+01   0.9999197871E+00   0.7724096458E-04   0.1000000000E-03  -0.2628767928E-04   0.2476318945E-04   0.6000000000E-03  -0.5392517839E-04   0.5247777513E-04   0.7843777523E+00   0.2732960400E+00   0.2269022592E+00  -0.9819548011E-02   0.4847894840E-02   0.2781248737E-06
   0.2000700000E+01   0.0000000000E+00   0.9999227616E+00   0.1000000000E-03   0.0000000000E+00  -0.2476151709E-04   0.6000000000E-03   0.0000000000E+00  -0.5247693281E-04   0.7845452066E+00   0.2732118884E+00   0.2268189564E+00  -0.4846855734E-02  -0.4847877408E-02  -0.1793235727E-06
   0.2000700000E+01   0.9999197871E+00   0.9999227590E+00   0.1000000000E-03  -0.2628768113E-04  -0.2476319014E-04   0.6000000000E-03  -0.5392517893E-04  -0.5247777534E-04   0.7843776508E+00   0.2732961072E+00   0.2269022934E+00  -0.9819598529E-02  -0.4848013875E-02  -0.1627929234E-06
     1     2     3     4     5     6     7     8
     2     9    10     3     6    11    12     7
 VARIABLES = X,Y,Z,DU1,DU2,DU3,U1,U2,U3,S11,S22,S33,S12,S13,S23
 ZONE, T="0.8000D-01" F=FEPOINT, I=   12 J=    2 ET=BRICK
   0.0000000000E+00   0.0000000000E+00   0.0000000000E+00   0.0000000000E+00   0.0000000000E+00   0.0000000000E+00   0.0000000000E+00   0.0000000000E+00   0.0000000000E+00   0.1165789123E+00   0.8717053400E-02  -0.2744836064E-02  -0.6662038663E-02   0.6642133967E-02  -0.2280648796E-04
   0.1000122844E+01   0.0000000000E+00   0.5304556205E-04   0.3626692249E-04   0.0000000000E+00   0.1449207153E-04   0.8657664997E-04   0.0000000000E+00   0.3855349052E-04   0.4738669139E+00   0.1305046980E+00   0.9333625325E-01  -0.6429977614E-02   0.6653567115E-02  -0.5384088107E-05
   0.1000124696E+01   0.9999433281E+00   0.5304648352E-04   0.3711461678E-04  -0.1614124429E-04   0.1449254638E-04   0.8758149989E-04  -0.4053063740E-04   0.3855393713E-04   0.4738650554E+00   0.1305028396E+00   0.9333997002E-01  -0.1332418193E-01   0.6659426297E-02  -0.5245503972E-05
   0.0000000000E+00   0.9999983426E+00  -0.1425825206E-06   0.0000000000E+00  -0.8082952230E-06  -0.8591112158E-08   0.0000000000E+00  -0.8490926044E-06  -0.1339914084E-06   0.1168800642E+00   0.8553978244E-02  -0.2882912816E-02  -0.1355619050E-01   0.6653767831E-02  -0.2249268314E-04
   0.0000000000E+00   0.0000000000E+00   0.1000000137E+01   0.0000000000E+00   0.0000000000E+00   0.5047949885E-08   0.0000000000E+00   0.0000000000E+00   0.1316645639E-06   0.1165789371E+00   0.8717354791E-02  -0.2745162282E-02  -0.6662178744E-02  -0.6675830476E-02  -0.1030728604E-04
   0.1000122845E+01   0.0000000000E+00   0.9999469553E+00   0.3626779108E-04   0.0000000000E+00  -0.1449162017E-04   0.8657746021E-04   0.0000000000E+00  -0.3855307761E-04   0.4738668214E+00   0.1305048828E+00   0.9333616086E-01  -0.6430117327E-02  -0.6670101911E-02  -0.2596510182E-05
   0.1000124697E+01   0.9999433289E+00   0.9999469552E+00   0.3711505445E-04  -0.1614082003E-04  -0.1449167994E-04   0.8758190655E-04  -0.4053023687E-04  -0.3855312789E-04   0.4738649630E+00   0.1305030244E+00   0.9333987763E-01  -0.1332439164E-01  -0.6667640120E-02  -0.2457926047E-05
   0.0000000000E+00   0.9999983460E+00   0.1000000144E+01   0.0000000000E+00  -0.8065675225E-06   0.9459624912E-08   0.0000000000E+00  -0.8474764579E-06   0.1348015843E-06   0.1168800426E+00   0.8554302873E-02  -0.2883215795E-02  -0.1355643580E-01  -0.6670510844E-02  -0.9993481227E-05
   0.2000800000E+01   0.0000000000E+00   0.1062274165E-03   0.1000000000E-03   0.0000000000E+00   0.2898896569E-04   0.7000000000E-03   0.0000000000E+00   0.7723845082E-04   0.8311625915E+00   0.2522998088E+00   0.1894022003E+00  -0.6662143630E-02   0.6664649217E-02   0.6291171054E-06
   0.2000800000E+01   0.9998883122E+00   0.1062336816E-03   0.1000000000E-03  -0.3147491774E-04   0.2899271699E-04   0.7000000000E-03  -0.8021285767E-04   0.7724096458E-04   0.8308538336E+00   0.2524552781E+00   0.1895554889E+00  -0.1355640043E-01   0.6664803433E-02   0.6629336667E-06
   0.2000800000E+01   0.0000000000E+00   0.9998937726E+00   0.1000000000E-03   0.0000000000E+00  -0.2898896369E-04   0.7000000000E-03   0.0000000000E+00  -0.7723844990E-04   0.8311623349E+00   0.2522999709E+00   0.1894022948E+00  -0.6662213258E-02  -0.6664724391E-02  -0.4612458049E-06
   0.2000800000E+01   0.9998883122E+00   0.9998937663E+00   0.1000000000E-03  -0.3147492296E-04  -0.2899271893E-04   0.7000000000E-03  -0.8021286006E-04  -0.7724096548E-04   0.8308536235E+00   0.2524554169E+00   0.1895555601E+00  -0.1355650483E-01  -0.6665050724E-02  -0.4274292436E-06
     1     2     3     4     5     6     7     8
     2     9    10     3     6    11    12     7
 VARIABLES = X,Y,Z,DU1,DU2,DU3,U1,U2,U3,S11,S22,S33,S12,S13,S23
 ZONE, T="0.9000D-01" F=FEPOINT, I=   12 J=    2 ET=BRICK
   0.0000000000E+00   0.0000000000E+00   0.0000000000E+00   0.0000000000E+00   0.0000000000E+00   0.0000000000E+00   0.0000000000E+00   0.0000000000E+00   0.0000000000E+00   0.1600470793E+00   0.1412231324E-01  -0.1718017087E-03  -0.8673758318E-02   0.8674011677E-02  -0.6094730858E-05
   0.1000165933E+01   0.0000000000E+00   0.6922212317E-04   0.4308970970E-04   0.0000000000E+00   0.1617656112E-04   0.1228435725E-03   0.0000000000E+00   0.5304556205E-04   0.5107274961E+00   0.1157370732E+00   0.6828597007E-01  -0.8280264782E-02   0.8676980108E-02  -0.9207532028E-06