 VARIABLES = X,Y,Z,DU1,DU2,DU3,U1,U2,U3,S11,S22,S33,S12,S13,S23,Vf
 ZONE, T="0.1000D+00" F=FEPOINT, I=   12 J=    2 ET=BRICK
   0.0000000000E+00   0.0000000000E+00   0.0000000000E+00   0.0000000000E+00   0.0000000000E+00   0.0000000000E+00   0.0000000000E+00   0.0000000000E+00   0.0000000000E+00   0.1599092102E+00   0.1406968438E-01  -0.2216366542E-03  -0.8672830232E-02   0.8672357174E-02  -0.6791129026E-05   0.0000000000E+00
   0.1000215362E+01   0.0000000000E+00   0.8649445366E-04   0.4951905379E-04   0.0000000000E+00   0.1728624275E-04   0.1658428230E-03   0.0000000000E+00   0.6920821091E-04   0.5105389229E+00   0.1156644154E+00   0.6821665356E-01  -0.8280264574E-02   0.8676220848E-02  -0.1168740831E-05   0.0000000000E+00
   0.1000220346E+01   0.9999038516E+00   0.8649657940E-04   0.5136443724E-04  -0.2082637078E-04   0.1728681646E-04   0.1689812588E-03  -0.7532201414E-04   0.6920976294E-04   0.5105383374E+00   0.1156641512E+00   0.6821750323E-01  -0.1734665646E-01   0.8678227342E-02  -0.1018439043E-05   0.0000000000E+00
   0.0000000000E+00   0.9999949764E+00   0.2489551328E-06   0.0000000000E+00  -0.2046060529E-05   0.3009749300E-06   0.0000000000E+00  -0.2977493690E-05  -0.5201979715E-07   0.1604294210E+00   0.1380411436E-01  -0.4762774114E-03  -0.1773882991E-01   0.8676098826E-02  -0.6339394360E-05   0.0000000000E+00
   0.0000000000E+00   0.0000000000E+00   0.9999997247E+00   0.0000000000E+00   0.0000000000E+00  -0.3142993161E-06   0.0000000000E+00   0.0000000000E+00   0.3897248544E-07   0.1599092538E+00   0.1407020100E-01  -0.2221968731E-03  -0.8673071223E-02  -0.8681144085E-02  -0.1003397655E-05   0.0000000000E+00
   0.1000215366E+01   0.0000000000E+00   0.9999135077E+00   0.4952019150E-04   0.0000000000E+00  -0.1728559906E-04   0.1658457118E-03   0.0000000000E+00  -0.6920670258E-04   0.5105387648E+00   0.1156647315E+00   0.6821649558E-01  -0.8280504498E-02  -0.8680077434E-02  -0.2748409395E-06   0.0000000000E+00
   0.1000220348E+01   0.9999038535E+00   0.9999135074E+00   0.5136502099E-04  -0.2082584540E-04  -0.1728568751E-04   0.1689827159E-03  -0.7532060707E-04  -0.6920688184E-04   0.5105381794E+00   0.1156644672E+00   0.6821734520E-01  -0.1734701672E-01  -0.8680062852E-02   0.4906521407E-07   0.0000000000E+00
   0.0000000000E+00   0.9999949844E+00   0.9999997551E+00   0.0000000000E+00  -0.2043825961E-05  -0.2998365340E-06   0.0000000000E+00  -0.2971750987E-05   0.5490888971E-07   0.1604293850E+00   0.1380467085E-01  -0.4767978880E-03  -0.1773925198E-01  -0.8680311342E-02  -0.3780332592E-06   0.0000000000E+00
   0.2001000000E+01   0.0000000000E+00   0.1727109149E-03   0.1000000000E-03   0.0000000000E+00   0.3425710106E-04   0.9000000000E-03   0.0000000000E+00   0.1384538138E-03   0.8611728000E+00   0.2172616594E+00   0.1366482663E+00  -0.8673826592E-02   0.8679480677E-02   0.1231368365E-05   0.0000000000E+00
   0.2001000000E+01   0.9998127235E+00   0.1727382059E-03   0.1000000000E-03  -0.3960760312E-04   0.3427069488E-04   0.9000000000E-03  -0.1476688662E-03   0.1384675110E-03   0.8606501867E+00   0.2175254692E+00   0.1369070698E+00  -0.1774061067E-01   0.8679871330E-02   0.1201739636E-05   0.0000000000E+00
   0.2001000000E+01   0.0000000000E+00   0.9998272891E+00   0.1000000000E-03   0.0000000000E+00  -0.3425709232E-04   0.9000000000E-03   0.0000000000E+00  -0.1384538063E-03   0.8611723592E+00   0.2172619369E+00   0.1366484296E+00  -0.8673945945E-02  -0.8679614881E-02  -0.9486673989E-06   0.0000000000E+00
   0.2001000000E+01   0.9998127235E+00   0.9998272618E+00   0.1000000000E-03  -0.3960762573E-04  -0.3427070286E-04   0.9000000000E-03  -0.1476688857E-03  -0.1384675182E-03   0.8606498256E+00   0.2175257069E+00   0.1369071932E+00  -0.1774078962E-01  -0.8680298948E-02  -0.8047191989E-06   0.0000000000E+00
     1     2     3     4     5     6     7     8
     2     9    10     3     6    11    12     7
 VARIABLES = X,Y,Z,DU1,DU2,DU3,U1,U2,U3,S11,S22,S33,S12,S13,S23,Vf
 ZONE, T="0.2000D+00" F=FEPOINT, I=   12 J=    2 ET=BRICK
   0.0000000000E+00   0.0000000000E+00   0.0000000000E+00   0.0000000000E+00   0.0000000000E+00   0.0000000000E+00   0.0000000000E+00   0.0000000000E+00   0.0000000000E+00   0.8985188559E+00   0.1397017476E+00   0.1358325263E+00  -0.1778355784E-01   0.2702951756E-01   0.8514260896E-02   0.3725468367E-07
   0.1000882081E+01   0.0000000000E+00   0.2013985569E-03   0.6625674298E-04   0.0000000000E+00   0.2826329359E-05   0.8158245966E-03   0.0000000000E+00   0.1985722275E-03   0.8488066074E+00  -0.3531731970E-01  -0.9119868059E-01  -0.9638518558E-02   0.2174737571E-01   0.2048009284E-02   0.1415261732E-04
   0.1000952608E+01   0.9996700642E+00   0.2004651878E-03   0.7658747318E-04  -0.2110452504E-04   0.2491010014E-05   0.8760203513E-03  -0.3088312492E-03   0.1979741777E-03   0.8519429181E+00  -0.3568830117E-01  -0.9396394810E-01  -0.3385212288E-01   0.1967657752E-01   0.1979847567E-02   0.1333243338E-04
   0.0000000000E+00   0.9998678549E+00   0.6837647036E-04   0.0000000000E+00  -0.2592702274E-04   0.1664380406E-04   0.0000000000E+00  -0.1062180722E-03   0.5173266631E-04   0.9112828306E+00   0.1375390534E+00   0.1252312458E+00  -0.4311287183E-01   0.2264719417E-01   0.8359644737E-02   0.7233091867E-07
   0.0000000000E+00   0.0000000000E+00   0.9999294163E+00   0.0000000000E+00   0.0000000000E+00  -0.1723768153E-04   0.0000000000E+00   0.0000000000E+00  -0.5334598792E-04   0.8985114081E+00   0.1395524205E+00   0.1359893012E+00  -0.1771435705E-01  -0.1394314099E-01   0.4293211800E-02   0.3583348422E-07
   0.1000880793E+01   0.0000000000E+00   0.9997979099E+00   0.6579726571E-04   0.0000000000E+00  -0.3078402231E-05   0.8149961709E-03   0.0000000000E+00  -0.1990116677E-03   0.8488289887E+00  -0.3539639157E-01  -0.9114199080E-01  -0.9571065643E-02  -0.1535518829E-01   0.1014690921E-02   0.1416107433E-04
   0.1000951953E+01   0.9996694491E+00   0.9997982551E+00   0.7635269794E-04  -0.2132060791E-04  -0.2946472629E-05   0.8756005032E-03  -0.3092302627E-03  -0.1987984366E-03   0.8519703196E+00  -0.3576964920E-01  -0.9391000211E-01  -0.3375034039E-01  -0.1651020619E-01   0.9480272230E-03   0.1333878674E-04
   0.0000000000E+00   0.9998653118E+00   0.9999303366E+00   0.0000000000E+00  -0.2683010528E-04  -0.1710279187E-04   0.0000000000E+00  -0.1078580556E-03  -0.5256056429E-04   0.9112964467E+00   0.1373789719E+00   0.1253777111E+00  -0.4299205958E-01  -0.1615620904E-01   0.4139911281E-02   0.7125756647E-07
   0.2002000000E+01   0.0000000000E+00   0.3414770958E-03   0.1000000000E-03   0.0000000000E+00  -0.8757906330E-05   0.1900000000E-02   0.0000000000E+00   0.3502350021E-03   0.7604387296E+00  -0.1995634374E+00  -0.2903485230E+00  -0.1511003781E-01   0.1578316128E-01   0.2020172704E-04   0.4090567024E-04
   0.2002000000E+01   0.9994663205E+00   0.3426996775E-03   0.1000000000E-03  -0.1808831154E-04  -0.8521391433E-05   0.1900000000E-02  -0.5155911980E-03   0.3512210690E-03   0.7560458499E+00  -0.1968376284E+00  -0.2886812575E+00  -0.3723102173E-01   0.1599358808E-01   0.4653950975E-05   0.3903262254E-04
   0.2002000000E+01   0.0000000000E+00   0.9996585170E+00   0.1000000000E-03   0.0000000000E+00   0.8755150988E-05   0.1900000000E-02   0.0000000000E+00  -0.3502381197E-03   0.7605042759E+00  -0.1996155538E+00  -0.2903619548E+00  -0.1507715785E-01  -0.1574283004E-01  -0.9431529798E-04   0.4092698061E-04
   0.2002000000E+01   0.9994663328E+00   0.9996573053E+00   0.1000000000E-03  -0.1808268036E-04   0.8523626068E-05   0.1900000000E-02  -0.5155845466E-03  -0.3512182845E-03   0.7561035080E+00  -0.1968848404E+00  -0.2886917050E+00  -0.3718116116E-01  -0.1587618685E-01  -0.1093770420E-03   0.3904852339E-04
     1     2     3     4     5     6     7     8
     2     9    10     3     6    11    12     7
 VARIABLES = X,Y,Z,DU1,DU2,DU3,U1,U2,U3,S11,S22,S33,S12,S13,S23,Vf
 ZONE, T="0.3000D+00" F=FEPOINT, I=   12 J=    2 ET=BRICK
   0.0000000000E+00   0.0000000000E+00   0.0000000000E+00   0.0000000000E+00   0.0000000000E+00   0.0000000000E+00   0.0000000000E+00   0.0000000000E+00   0.0000000000E+00   0.1134966336E+01   0.5114911662E-01   0.7609462130E-01   0.1493642829E-01   0.3096205840E-01   0.4063519864E-01   0.8389664381E-04
   0.1001432678E+01   0.0000000000E+00   0.2468978510E-03   0.5355730224E-04   0.0000000000E+00   0.1269498653E-04   0.1379120646E-02   0.0000000000E+00   0.2342028645E-03   0.1145286506E+01   0.7061407280E-01   0.1313794735E+00   0.3010798398E-01   0.8273458316E-02   0.8720121327E-02   0.9194616244E-04
   0.1001592055E+01   0.9994465477E+00   0.2346186850E-03   0.5790962847E-04  -0.2705576258E-04   0.1079495838E-04   0.1534145654E-02  -0.5263965316E-03   0.2238237266E-03   0.1145916879E+01   0.7507366397E-01   0.1262869127E+00   0.3029847730E-01  -0.2177579338E-02   0.7297344990E-02   0.9329406262E-04
   0.0000000000E+00   0.9994607625E+00   0.3753604764E-03   0.0000000000E+00  -0.4690363577E-04   0.3746364046E-04   0.0000000000E+00  -0.4923338697E-03   0.3378968359E-03   0.1141254696E+01   0.6989152977E-01   0.5104784842E-01   0.1532359840E-01   0.8114550899E-02   0.3672589164E-01   0.9788077071E-04
   0.0000000000E+00   0.0000000000E+00   0.9996084979E+00   0.0000000000E+00   0.0000000000E+00  -0.3945489185E-04   0.0000000000E+00   0.0000000000E+00  -0.3520472142E-03   0.1136028716E+01   0.4782055206E-01   0.7836153647E-01   0.1621783162E-01   0.3320561718E-01   0.1857428182E-01   0.8318908791E-04
   0.1001409123E+01   0.0000000000E+00   0.9997385660E+00   0.4923482814E-04   0.0000000000E+00  -0.1554791841E-04   0.1359887725E-02   0.0000000000E+00  -0.2458861029E-03   0.1145821972E+01   0.6918666239E-01   0.1322712831E+00   0.3138194385E-01   0.2094873359E-01   0.3871286300E-02   0.9205489028E-04
   0.1001579695E+01   0.9994367407E+00   0.9997426614E+00   0.5560072774E-04  -0.2872558496E-04  -0.1490023887E-04   0.1524093877E-02  -0.5345336892E-03  -0.2424383502E-03   0.1146279945E+01   0.7374539393E-01   0.1272519330E+00   0.3220351229E-01   0.1601199590E-01   0.2572134860E-02   0.9348437865E-04
   0.0000000000E+00   0.9994166151E+00   0.9996011187E+00   0.0000000000E+00  -0.5474013741E-04  -0.4173986321E-04   0.0000000000E+00  -0.5286447592E-03  -0.3571414806E-03   0.1142066916E+01   0.6677632639E-01   0.5335129843E-01   0.1751218060E-01   0.2238264411E-01   0.1528328689E-01   0.9748394804E-04
   0.2003000000E+01   0.0000000000E+00   0.1604070257E-03   0.1000000000E-03   0.0000000000E+00  -0.7852090511E-05   0.2900000000E-02   0.0000000000E+00   0.1682591162E-03   0.1146364225E+01   0.7067259163E-01   0.2153197464E+00   0.1589697832E-01  -0.1149291250E-01  -0.5184600846E-03   0.1002558033E-03
   0.2003000000E+01   0.9994135021E+00   0.1658852100E-03   0.1000000000E-03  -0.6588300385E-05  -0.7253842498E-05   0.2900000000E-02  -0.5799095560E-03   0.1731390525E-03   0.1142441278E+01   0.7252573989E-01   0.2173968521E+00   0.1618937463E-01  -0.1021382957E-01  -0.7889413615E-03   0.9257438618E-04
   0.2003000000E+01   0.0000000000E+00   0.9998392594E+00   0.1000000000E-03   0.0000000000E+00   0.7770128186E-05   0.2900000000E-02   0.0000000000E+00  -0.1685107280E-03   0.1147345093E+01   0.7002944416E-01   0.2149812062E+00   0.1653363930E-01   0.1255580617E-01  -0.6745873701E-03   0.1009331091E-03
   0.2003000000E+01   0.9994141023E+00   0.9998343172E+00   0.1000000000E-03  -0.6447053809E-05   0.7298606540E-05   0.2900000000E-02  -0.5794506371E-03  -0.1729813902E-03   0.1143264426E+01   0.7194104484E-01   0.2171577714E+00   0.1716964510E-01   0.1279492217E-01  -0.9485192279E-03   0.9312299942E-04
     1     2     3     4     5     6     7     8
     2     9    10     3     6    11    12     7
 VARIABLES = X,Y,Z,DU1,DU2,DU3,U1,U2,U3,S11,S22,S33,S12,S13,S23,Vf
 ZONE, T="0.4000D+00" F=FEPOINT, I=   12 J=    2 ET=BRICK
   0.0000000000E+00   0.0000000000E+00   0.0000000000E+00   0.0000000000E+00   0.0000000000E+00   0.0000000000E+00   0.0000000000E+00   0.0000000000E+00   0.0000000000E+00   0.5159585792E+00  -0.1765963674E+00  -0.1738198059E+00   0.1179896176E-01   0.1745246318E-01   0.2449745656E-01   0.5229394061E-03
   0.1002080681E+01   0.0000000000E+00   0.3925131130E-03   0.7035373609E-04   0.0000000000E+00   0.4880552542E-05   0.2010327438E-02   0.0000000000E+00   0.3876325605E-03   0.5049268122E+00  -0.1660193986E+00  -0.1673579216E+00   0.1827233271E-01   0.7273947111E-03   0.3304545080E-02   0.5621394570E-03
   0.1002229778E+01   0.9991862489E+00   0.3557233841E-03   0.6557027560E-04  -0.1623508704E-04   0.2355778330E-05   0.2164207284E-02  -0.7975160327E-03   0.3533676058E-03   0.5147716966E+00  -0.1581936302E+00  -0.1642037919E+00   0.2633685381E-01  -0.5745513516E-02   0.5131505989E-03   0.5562623793E-03
   0.0000000000E+00   0.9991168650E+00   0.6281214733E-03   0.0000000000E+00  -0.1799104601E-04   0.8010058415E-05   0.0000000000E+00  -0.8651439731E-03   0.6201114149E-03   0.5147782093E+00  -0.1773094067E+00  -0.2129605071E+00   0.1933986553E-01   0.1097289814E-02   0.1761938362E-01   0.5508616473E-03
   0.0000000000E+00   0.0000000000E+00   0.9993420604E+00   0.0000000000E+00   0.0000000000E+00  -0.1011503073E-04   0.0000000000E+00   0.0000000000E+00  -0.6478246126E-03   0.5161842479E+00  -0.1813752984E+00  -0.1659279880E+00   0.1492421007E-01   0.2023655678E-01   0.5772539447E-02   0.5204823335E-03
   0.1001984359E+01   0.0000000000E+00   0.9995390443E+00   0.6168593342E-04   0.0000000000E+00  -0.1202596242E-04   0.1922673423E-02   0.0000000000E+00  -0.4489297413E-03   0.5039717542E+00  -0.1707645233E+00  -0.1670177413E+00   0.2141582913E-01   0.1033222128E-01   0.5469104226E-03   0.5647131715E-03
   0.1002176730E+01   0.9991531323E+00   0.9995572268E+00   0.6050739049E-04  -0.1865531407E-04  -0.9903309455E-05   0.2116222474E-02  -0.8282123446E-03  -0.4328698701E-03   0.5128347661E+00  -0.1634916578E+00  -0.1643444880E+00   0.3100336055E-01   0.8966264686E-02  -0.2293772724E-02   0.5597358893E-03
   0.0000000000E+00   0.9989573509E+00   0.9992803083E+00   0.0000000000E+00  -0.3095955439E-04  -0.1623691019E-04   0.0000000000E+00  -0.1011689549E-02  -0.7034547887E-03   0.5149268591E+00  -0.1831495525E+00  -0.2057691913E+00   0.2488189933E-01   0.1482020758E-01  -0.1186352810E-02   0.5497207556E-03
   0.2004000000E+01   0.0000000000E+00   0.2719310559E-03   0.1000000000E-03   0.0000000000E+00   0.1034742218E-04   0.3900000000E-02   0.0000000000E+00   0.2615836337E-03   0.4990915666E+00  -0.1611104718E+00  -0.1375337968E+00   0.1491448005E-01  -0.6931469709E-02  -0.1681927420E-02   0.5899674443E-03
   0.2004000000E+01   0.9992654434E+00   0.2736583647E-03   0.1000000000E-03  -0.1033902076E-04   0.9526352473E-05   0.3900000000E-02  -0.7242176281E-03   0.2641320123E-03   0.5258422135E+00  -0.1340758540E+00  -0.1029523138E+00   0.2361294561E-01  -0.5108616853E-02  -0.2233300464E-02   0.5540546343E-03
   0.2004000000E+01   0.0000000000E+00   0.9997260318E+00   0.1000000000E-03   0.0000000000E+00  -0.1058059398E-04   0.3900000000E-02   0.0000000000E+00  -0.2633876231E-03   0.4970760544E+00  -0.1681584406E+00  -0.1444173757E+00   0.1642637504E-01   0.1034968963E-01  -0.1984885842E-03   0.5982421830E-03
   0.2004000000E+01   0.9992669397E+00   0.9997275083E+00   0.1000000000E-03  -0.1024847636E-04  -0.9384371804E-05   0.3900000000E-02  -0.7228118143E-03  -0.2631073080E-03   0.5229115474E+00  -0.1413574538E+00  -0.1100371184E+00   0.2578766227E-01   0.1143631585E-01  -0.8445479121E-03   0.5623921652E-03
     1     2     3     4     5     6     7     8
     2     9    10     3     6    11    12     7
 VARIABLES = X,Y,Z,DU1,DU2,DU3,U1,U2,U3,S11,S22,S33,S12,S13,S23,Vf
 ZONE, T="0.5000D+00" F=FEPOINT, I=   12 J=    2 ET=BRICK
   0.0000000000E+00   0.0000000000E+00   0.0000000000E+00   0.0000000000E+00   0.0000000000E+00   0.0000000000E+00   0.0000000000E+00   0.0000000000E+00   0.0000000000E+00   0.5892886744E+00  -0.4175103218E-01   0.4919034017E-02   0.2095507687E-02  -0.6525517606E-02  -0.3100542750E-02   0.1038785129E-02
   0.1002769849E+01   0.0000000000E+00   0.3212813639E-03   0.6680944336E-04   0.0000000000E+00  -0.1018080427E-04   0.2703039276E-02   0.0000000000E+00   0.3314621681E-03   0.5654431104E+00  -0.3364563309E-01   0.1027711117E-01   0.1262178569E-03  -0.9666777128E-02  -0.2955436645E-02   0.9669362817E-03
   0.1002835491E+01   0.9991533528E+00   0.2703116264E-03   0.5715924979E-04   0.2476038359E-05  -0.1037172954E-04   0.2778331384E-02  -0.8491232844E-03   0.2806833559E-03   0.5650580728E+00  -0.3379487535E-01   0.1427070608E-01   0.7607072475E-02  -0.8806232363E-02  -0.6434045217E-02   0.9675344699E-03
   0.0000000000E+00   0.9990776274E+00   0.5721810582E-03   0.0000000000E+00   0.1774973326E-05  -0.9363305528E-05   0.0000000000E+00  -0.9241476143E-03   0.5815443637E-03   0.5865415069E+00  -0.3287711562E-01   0.2236885583E-02   0.8229703991E-02  -0.9133419381E-02  -0.1215225088E-01   0.1052760270E-02
   0.0000000000E+00   0.0000000000E+00   0.9993455443E+00   0.0000000000E+00   0.0000000000E+00   0.1623886220E-05   0.0000000000E+00   0.0000000000E+00  -0.6560795613E-03   0.5877664626E+00  -0.4871588228E-01   0.1553299575E-01   0.6620489070E-02  -0.5189134091E-03  -0.8801006523E-02   0.1035864814E-02
   0.1002598145E+01   0.0000000000E+00   0.9995272387E+00   0.6104253487E-04   0.0000000000E+00   0.1488777710E-05   0.2537102871E-02   0.0000000000E+00  -0.4742501162E-03   0.5657954965E+00  -0.3854837722E-01   0.1205869219E-01   0.4633855433E-02  -0.4966348203E-02  -0.1141522711E-02   0.9690994934E-03
   0.1002733740E+01   0.9991064821E+00   0.9995740831E+00   0.5287071488E-04   0.2184033076E-05   0.4728026344E-05   0.2680869698E-02  -0.8957019617E-03  -0.4306448915E-03   0.5652113987E+00  -0.3865907707E-01   0.1606787370E-01   0.1428385902E-01  -0.2231164022E-02  -0.4653321912E-02   0.9699867574E-03
   0.0000000000E+00   0.9988137349E+00   0.9992525384E+00   0.0000000000E+00  -0.5150982801E-05   0.1427400705E-05   0.0000000000E+00  -0.1181114130E-02  -0.7488889700E-03   0.5850196024E+00  -0.4047070093E-01   0.1231430928E-01   0.1623091628E-01   0.2124376835E-02  -0.1783243976E-01   0.1051493090E-02
   0.2005000000E+01   0.0000000000E+00   0.2651770531E-03   0.1000000000E-03   0.0000000000E+00  -0.3897761078E-05   0.4900000000E-02   0.0000000000E+00   0.2690748142E-03   0.5435955832E+00  -0.2270961618E-01   0.9827123144E-02   0.5776072206E-02   0.3149981746E-02  -0.1154466298E-02   0.8931115973E-03
   0.2005000000E+01   0.9992711567E+00   0.2660051453E-03   0.1000000000E-03   0.4755432108E-05  -0.3552808598E-05   0.4900000000E-02  -0.7335986996E-03   0.2695579539E-03   0.5459825004E+00  -0.2608742099E-01   0.1366913372E-01   0.1454594535E-01   0.5132228408E-02  -0.1701096151E-02   0.8877312043E-03
   0.2005000000E+01   0.0000000000E+00   0.9997294213E+00   0.1000000000E-03   0.0000000000E+00   0.3449231634E-05   0.4900000000E-02   0.0000000000E+00  -0.2740279315E-03   0.5456489879E+00  -0.2894792470E-01   0.3973015303E-02   0.7845056589E-02   0.6961200291E-02   0.1367894373E-02   0.9018772875E-03
   0.2005000000E+01   0.9992757121E+00   0.9997352418E+00   0.1000000000E-03   0.5154451570E-05   0.3280557131E-05   0.4900000000E-02  -0.7294423021E-03  -0.2680387552E-03   0.5476685611E+00  -0.3173966091E-01   0.8375186250E-02   0.1741165244E-01   0.7328947029E-02   0.7521467594E-03   0.8955010385E-03
     1     2     3     4     5     6     7     8
     2     9    10     3     6    11    12     7
 VARIABLES = X,Y,Z,DU1,DU2,DU3,U1,U2,U3,S11,S22,S33,S12,S13,S23,Vf
 ZONE, T="0.6000D+00" F=FEPOINT, I=   12 J=    2 ET=BRICK
   0.0000000000E+00   0.0000000000E+00   0.0000000000E+00   0.0000000000E+00   0.0000000000E+00   0.0000000000E+00   0.0000000000E+00   0.0000000000E+00   0.0000000000E+00   0.5705193065E+00  -0.1461885323E-02   0.1516993494E-01  -0.3685538826E-02  -0.9613966609E-02  -0.6158177790E-02   0.1723118837E-02
   0.1003400688E+01   0.0000000000E+00   0.2687694217E-03   0.5978090021E-04   0.0000000000E+00  -0.1208856701E-05   0.3340907436E-02   0.0000000000E+00   0.2699782784E-03   0.5508526329E+00   0.9786075998E-02   0.2962057700E-01  -0.1270760741E-01  -0.7218418648E-02   0.1063955139E-03   0.1560415879E-02
   0.1003386906E+01   0.9991813157E+00   0.2282276670E-03   0.5410149034E-04   0.2284971189E-05   0.4586037187E-06   0.3332804464E-02  -0.8209692772E-03   0.2277690632E-03   0.5507199298E+00   0.7468865031E-02   0.3388196082E-01  -0.7579704772E-02  -0.5590470905E-02  -0.1528857931E-02   0.1560763861E-02
   0.0000000000E+00   0.9990891009E+00   0.5172420667E-03   0.0000000000E+00  -0.2055708787E-06  -0.2320666776E-05   0.0000000000E+00  -0.9106935014E-03   0.5195627335E-03   0.5664217217E+00   0.5053456253E-02   0.2711849355E-01   0.1207569287E-02  -0.7099135199E-02  -0.1149221947E-01   0.1729827576E-02
   0.0000000000E+00   0.0000000000E+00   0.9993034678E+00   0.0000000000E+00   0.0000000000E+00  -0.8345405913E-05   0.0000000000E+00   0.0000000000E+00  -0.6881868400E-03   0.5694783177E+00  -0.4088212940E-02   0.2275750688E-01  -0.8726878835E-03  -0.2815278009E-02  -0.3661709283E-02   0.1718594727E-02
   0.1003198979E+01   0.0000000000E+00   0.9995015947E+00   0.5876690600E-04   0.0000000000E+00  -0.5485710586E-05   0.3140212376E-02   0.0000000000E+00  -0.4929195774E-03   0.5512634907E+00   0.7425213917E-02   0.3029352892E-01  -0.1017507251E-01  -0.4909551862E-02   0.3200141715E-02   0.1562140536E-02
   0.1003254018E+01   0.9991403066E+00   0.9995762417E+00   0.5191552980E-04   0.3162254940E-05  -0.3470905224E-05   0.3202102403E-02  -0.8628556177E-03  -0.4202874444E-03   0.5509515931E+00   0.5259642331E-02   0.3472288792E-01  -0.3656874557E-02  -0.3733472091E-02   0.1540626609E-02   0.1562740964E-02
   0.0000000000E+00   0.9988050813E+00   0.9992363219E+00   0.0000000000E+00   0.1104978101E-05  -0.4339282243E-05   0.0000000000E+00  -0.1196023679E-02  -0.7593388062E-03   0.5651467998E+00   0.2263211061E-02   0.3475297828E-01   0.6470085227E-02   0.4296799306E-03  -0.8997577326E-02   0.1726894730E-02
   0.2006000000E+01   0.0000000000E+00   0.2651204748E-03   0.1000000000E-03   0.0000000000E+00   0.2859559743E-05   0.5900000000E-02   0.0000000000E+00   0.2622609151E-03   0.5339305428E+00   0.2554658889E-01   0.3029112874E-01  -0.3717582018E-02   0.8782848594E-02   0.1104638307E-02   0.1399321266E-02
   0.2006000000E+01   0.9993059084E+00   0.2686646069E-03   0.1000000000E-03   0.2043149216E-05   0.2874526898E-05   0.5900000000E-02  -0.6961347037E-03   0.2657900800E-03   0.5374329680E+00   0.1648653070E-01   0.2492751056E-01   0.1598703161E-02   0.8331372903E-02   0.1110297088E-02   0.1400588142E-02
   0.2006000000E+01   0.0000000000E+00   0.9997223130E+00   0.1000000000E-03   0.0000000000E+00  -0.3884715904E-05   0.5900000000E-02   0.0000000000E+00  -0.2738022935E-03   0.5357430522E+00   0.2103596379E-01   0.2522798810E-01  -0.2698341955E-02   0.6787255204E-02   0.2487320225E-02   0.1408874872E-02
   0.2006000000E+01   0.9993125296E+00   0.9997217312E+00   0.1000000000E-03   0.1991572929E-05  -0.4763953461E-05   0.5900000000E-02  -0.6894620099E-03  -0.2735048881E-03   0.5391142859E+00   0.1232556513E-01   0.2018096569E-01   0.2891841606E-02   0.4643594587E-02   0.2439826790E-02   0.1409148630E-02
     1     2     3     4     5     6     7     8
     2     9    10     3     6    11    12     7
 VARIABLES = X,Y,Z,DU1,DU2,DU3,U1,U2,U3,S11,S22,S33,S12,S13,S23,Vf
 ZONE, T="0.7000D+00" F=FEPOINT, I=   12 J=    2 ET=BRICK
   0.0000000000E+00   0.0000000000E+00   0.0000000000E+00   0.0000000000E+00   0.0000000000E+00   0.0000000000E+00   0.0000000000E+00   0.0000000000E+00   0.0000000000E+00   0.5621249976E+00   0.2114303258E-02  -0.2421956090E-01  -0.2623402543E-02  -0.9308200065E-03  -0.1117569284E-03   0.2298791129E-02
   0.1003962733E+01   0.0000000000E+00   0.2698916562E-03   0.5376351828E-04   0.0000000000E+00  -0.1886626632E-06   0.3908969472E-02   0.0000000000E+00   0.2700803189E-03   0.5501964093E+00   0.1105846119E-01  -0.1688205293E-01  -0.1167027536E-01  -0.3025551089E-03   0.2690355748E-02   0.2077269700E-02
   0.1003925344E+01   0.9991959622E+00   0.2442306869E-03   0.5385300402E-04   0.7437200484E-06   0.9183095510E-06   0.3871490646E-02  -0.8047814852E-03   0.2433123774E-03   0.5504985968E+00   0.9076669740E-02  -0.1500899403E-01  -0.8421200336E-02  -0.7573854912E-03   0.2450299458E-02   0.2077748185E-02
   0.0000000000E+00   0.9990745298E+00   0.4997599222E-03   0.0000000000E+00  -0.2118854586E-05  -0.2474354080E-05   0.0000000000E+00  -0.9233513811E-03   0.5022342762E-03   0.5604426296E+00   0.4491684098E-02  -0.1356920142E-01   0.1574336578E-02   0.8087720301E-03  -0.1042067595E-02   0.2303453659E-02
   0.0000000000E+00   0.0000000000E+00   0.9992178144E+00   0.0000000000E+00   0.0000000000E+00  -0.7045154585E-05   0.0000000000E+00   0.0000000000E+00  -0.7751403960E-03   0.5615836465E+00   0.3185442509E-02  -0.2164199583E-01  -0.2395506742E-02   0.3432427583E-02   0.3942217259E-02   0.2293671070E-02
   0.1003762342E+01   0.0000000000E+00   0.9994502930E+00   0.5431175362E-04   0.0000000000E+00  -0.3589054685E-05   0.3708030438E-02   0.0000000000E+00  -0.5461179715E-03   0.5502488166E+00   0.1063247476E-01  -0.1697459996E-01  -0.1174754716E-01   0.7870638025E-03   0.4502367895E-02   0.2078687314E-02
   0.1003778052E+01   0.9991583160E+00   0.9995304810E+00   0.5284127402E-04   0.4825889669E-06  -0.4215741386E-05   0.3725210471E-02  -0.8421666034E-03  -0.4653032555E-03   0.5504796656E+00   0.8769529722E-02  -0.1495806468E-01  -0.8251408605E-02  -0.7394798308E-03   0.4253694698E-02   0.2079394885E-02
   0.0000000000E+00   0.9988189292E+00   0.9991865801E+00   0.0000000000E+00   0.1072769968E-05  -0.4408901596E-05   0.0000000000E+00  -0.1182143613E-02  -0.8090110083E-03   0.5596412857E+00   0.5965619019E-02  -0.1040524182E-01   0.2351455904E-02   0.3802171924E-02   0.3045612537E-02   0.2299468238E-02
   0.2007000000E+01   0.0000000000E+00   0.2882146399E-03   0.1000000000E-03   0.0000000000E+00   0.5545224467E-06   0.6900000000E-02   0.0000000000E+00   0.2876601174E-03   0.5395303486E+00   0.2068059181E-01  -0.1765384311E-01  -0.5693262232E-02   0.8258619172E-02   0.7580141431E-03   0.1858746986E-02
   0.2007000000E+01   0.9993150158E+00   0.2881031245E-03   0.1000000000E-03   0.1152353582E-06  -0.7621149138E-08   0.6900000000E-02  -0.6850994004E-03   0.2881107456E-03   0.5412760780E+00   0.1433238207E-01  -0.2284793460E-01  -0.3442201410E-02   0.5882856831E-02   0.6711782764E-03   0.1861635472E-02
   0.2007000000E+01   0.0000000000E+00   0.9996822804E+00   0.1000000000E-03   0.0000000000E+00  -0.2909668046E-05   0.6900000000E-02   0.0000000000E+00  -0.3148099011E-03   0.5400971065E+00   0.1844116750E-01  -0.1996460191E-01  -0.5808789429E-02   0.6160166138E-02   0.9741014037E-03   0.1867855821E-02
   0.2007000000E+01   0.9993181726E+00   0.9996737088E+00   0.1000000000E-03  -0.3578298411E-06  -0.3499001845E-05   0.6900000000E-02  -0.6814695704E-03  -0.3227921719E-03   0.5419620410E+00   0.1186453430E-01  -0.2539457100E-01  -0.3639433987E-02   0.2995423845E-02   0.8516120399E-03   0.1870135466E-02
     1     2     3     4     5     6     7     8
     2     9    10     3     6    11    12     7
 VARIABLES = X,Y,Z,DU1,DU2,DU3,U1,U2,U3,S11,S22,S33,S12,S13,S23,Vf
 ZONE, T="0.8000D+00" F=FEPOINT, I=   12 J=    2 ET=BRICK
   0.0000000000E+00   0.0000000000E+00   0.0000000000E+00   0.0000000000E+00   0.0000000000E+00   0.0000000000E+00   0.0000000000E+00   0.0000000000E+00   0.0000000000E+00   0.5605007020E+00   0.5956976535E-02  -0.1130835622E-01   0.6738175422E-03   0.1208040036E-02  -0.2334636773E-02   0.2853578950E-02
   0.1004483419E+01   0.0000000000E+00   0.2557533270E-03   0.5111968666E-04   0.0000000000E+00  -0.2081392438E-05   0.4432299636E-02   0.0000000000E+00   0.2578347194E-03   0.5542294039E+00   0.1055583412E-01  -0.5092840344E-02  -0.3488576028E-02   0.4463212812E-03   0.1822053681E-03   0.2600936872E-02
   0.1004464115E+01   0.9991904065E+00   0.2363115982E-03   0.5375691076E-04  -0.1696587559E-05  -0.1726964031E-05   0.4410358057E-02  -0.8078969178E-03   0.2380385622E-03   0.5544150266E+00   0.9669892715E-02  -0.5002457085E-02  -0.1637674393E-02   0.2441934791E-03  -0.7877119980E-05   0.2601726748E-02
   0.0000000000E+00   0.9990492137E+00   0.4623271199E-03   0.0000000000E+00  -0.2798868138E-05  -0.4254087968E-05   0.0000000000E+00  -0.9479874180E-03   0.4665812079E-03   0.5604073724E+00   0.3572751909E-02  -0.5292173852E-02   0.3553529955E-02   0.3474716627E-02  -0.1466641957E-02   0.2859749072E-02
   0.0000000000E+00   0.0000000000E+00   0.9991764919E+00   0.0000000000E+00   0.0000000000E+00  -0.2214208550E-05   0.0000000000E+00   0.0000000000E+00  -0.8212939399E-03   0.5600873417E+00   0.8058535718E-02  -0.1116049747E-01  -0.5042765686E-03   0.4773711901E-02   0.1860382753E-02   0.2848393310E-02
   0.1004286342E+01   0.0000000000E+00   0.9994344315E+00   0.5119348782E-04   0.0000000000E+00  -0.6281711050E-06   0.4235148778E-02   0.0000000000E+00  -0.5649403136E-03   0.5542736547E+00   0.1024458344E-01  -0.5098040038E-02  -0.4615879074E-02   0.2127226629E-02   0.6030158948E-03   0.2602314575E-02
   0.1004309152E+01   0.9991455934E+00   0.9994995622E+00   0.5314557608E-04  -0.2529160673E-05  -0.2519823607E-05   0.4256006762E-02  -0.8518774385E-03  -0.4979179386E-03   0.5544596087E+00   0.9397628591E-02  -0.4955654795E-02  -0.3062871531E-02   0.7411677244E-03   0.4115836253E-03   0.2603340693E-02
   0.0000000000E+00   0.9988196421E+00   0.9991560651E+00   0.0000000000E+00  -0.6971498463E-06  -0.2227133431E-05   0.0000000000E+00  -0.1179660747E-02  -0.8417077996E-03   0.5598675384E+00   0.6104331310E-02  -0.4622857786E-02   0.1688572060E-02   0.4371167590E-02   0.2766081600E-02   0.2855470813E-02