 VARIABLES = X,Y,Z,DU1,DU2,DU3,U1,U2,U3,S11,S22,S33,S12,S13,S23,Vf
 ZONE, T="0.1000D+00" F=FEPOINT, I=   12 J=    2 ET=BRICK
   0.0000000000E+00   0.0000000000E+00   0.0000000000E+00   0.0000000000E+00   0.0000000000E+00   0.0000000000E+00   0.0000000000E+00   0.0000000000E+00   0.0000000000E+00   0.1599092102E+00   0.1406968438E-01  -0.2216366542E-03  -0.8672830232E-02   0.8672357174E-02  -0.6791129026E-05   0.0000000000E+00
   0.1000215362E+01   0.0000000000E+00   0.8649445366E-04   0.4951905379E-04   0.0000000000E+00   0.1728624275E-04   0.1658428230E-03   0.0000000000E+00   0.6920821091E-04   0.5105389229E+00   0.1156644154E+00   0.6821665356E-01  -0.8280264574E-02   0.8676220848E-02  -0.1168740831E-05   0.0000000000E+00
   0.1000220346E+01   0.9999038516E+00   0.8649657940E-04   0.5136443724E-04  -0.2082637078E-04   0.1728681646E-04   0.1689812588E-03  -0.7532201414E-04   0.6920976294E-04   0.5105383374E+00   0.1156641512E+00   0.6821750323E-01  -0.1734665646E-01   0.8678227342E-02  -0.1018439043E-05   0.0000000000E+00
   0.0000000000E+00   0.9999949764E+00   0.2489551328E-06   0.0000000000E+00  -0.2046060529E-05   0.3009749300E-06   0.0000000000E+00  -0.2977493690E-05  -0.5201979715E-07   0.1604294210E+00   0.1380411436E-01  -0.4762774114E-03  -0.1773882991E-01   0.8676098826E-02  -0.6339394360E-05   0.0000000000E+00
   0.0000000000E+00   0.0000000000E+00   0.9999997247E+00   0.0000000000E+00   0.0000000000E+00  -0.3142993161E-06   0.0000000000E+00   0.0000000000E+00   0.3897248544E-07   0.1599092538E+00   0.1407020100E-01  -0.2221968731E-03  -0.8673071223E-02  -0.8681144085E-02  -0.1003397655E-05   0.0000000000E+00
   0.1000215366E+01   0.0000000000E+00   0.9999135077E+00   0.4952019150E-04   0.0000000000E+00  -0.1728559906E-04   0.1658457118E-03   0.0000000000E+00  -0.6920670258E-04   0.5105387648E+00   0.1156647315E+00   0.6821649558E-01  -0.8280504498E-02  -0.8680077434E-02  -0.2748409395E-06   0.0000000000E+00
   0.1000220348E+01   0.9999038535E+00   0.9999135074E+00   0.5136502099E-04  -0.2082584540E-04  -0.1728568751E-04   0.1689827159E-03  -0.7532060707E-04  -0.6920688184E-04   0.5105381794E+00   0.1156644672E+00   0.6821734520E-01  -0.1734701672E-01  -0.8680062852E-02   0.4906521407E-07   0.0000000000E+00
   0.0000000000E+00   0.9999949844E+00   0.9999997551E+00   0.0000000000E+00  -0.2043825961E-05  -0.2998365340E-06   0.0000000000E+00  -0.2971750987E-05   0.5490888971E-07   0.1604293850E+00   0.1380467085E-01  -0.4767978880E-03  -0.1773925198E-01  -0.8680311342E-02  -0.3780332592E-06   0.0000000000E+00
   0.2001000000E+01   0.0000000000E+00   0.1727109149E-03   0.1000000000E-03   0.0000000000E+00   0.3425710106E-04   0.9000000000E-03   0.0000000000E+00   0.1384538138E-03   0.8611728000E+00   0.2172616594E+00   0.1366482663E+00  -0.8673826592E-02   0.8679480677E-02   0.1231368365E-05   0.0000000000E+00
   0.2001000000E+01   0.9998127235E+00   0.1727382059E-03   0.1000000000E-03  -0.3960760312E-04   0.3427069488E-04   0.9000000000E-03  -0.1476688662E-03   0.1384675110E-03   0.8606501867E+00   0.2175254692E+00   0.1369070698E+00  -0.1774061067E-01   0.8679871330E-02   0.1201739636E-05   0.0000000000E+00
   0.2001000000E+01   0.0000000000E+00   0.9998272891E+00   0.1000000000E-03   0.0000000000E+00  -0.3425709232E-04   0.9000000000E-03   0.0000000000E+00  -0.1384538063E-03   0.8611723592E+00   0.2172619369E+00   0.1366484296E+00  -0.8673945945E-02  -0.8679614881E-02  -0.9486673989E-06   0.0000000000E+00
   0.2001000000E+01   0.9998127235E+00   0.9998272618E+00   0.1000000000E-03  -0.3960762573E-04  -0.3427070286E-04   0.9000000000E-03  -0.1476688857E-03  -0.1384675182E-03   0.8606498256E+00   0.2175257069E+00   0.1369071932E+00  -0.1774078962E-01  -0.8680298948E-02  -0.8047191989E-06   0.0000000000E+00
     1     2     3     4     5     6     7     8
     2     9    10     3     6    11    12     7
 VARIABLES = X,Y,Z,DU1,DU2,DU3,U1,U2,U3,S11,S22,S33,S12,S13,S23,Vf
 ZONE, T="0.2000D+00" F=FEPOINT, I=   12 J=    2 ET=BRICK
   0.0000000000E+00   0.0000000000E+00   0.0000000000E+00   0.0000000000E+00   0.0000000000E+00   0.0000000000E+00   0.0000000000E+00   0.0000000000E+00   0.0000000000E+00   0.8985188559E+00   0.1397017476E+00   0.1358325263E+00  -0.1778355784E-01   0.2702951756E-01   0.8514260896E-02   0.3725468367E-07
   0.1000882081E+01   0.0000000000E+00   0.2013985569E-03   0.6625674298E-04   0.0000000000E+00   0.2826329359E-05   0.8158245966E-03   0.0000000000E+00   0.1985722275E-03   0.8488066074E+00  -0.3531731970E-01  -0.9119868059E-01  -0.9638518558E-02   0.2174737571E-01   0.2048009284E-02   0.1415261732E-04
   0.1000952608E+01   0.9996700642E+00   0.2004651878E-03   0.7658747318E-04  -0.2110452504E-04   0.2491010014E-05   0.8760203513E-03  -0.3088312492E-03   0.1979741777E-03   0.8519429181E+00  -0.3568830117E-01  -0.9396394810E-01  -0.3385212288E-01   0.1967657752E-01   0.1979847567E-02   0.1333243338E-04
   0.0000000000E+00   0.9998678549E+00   0.6837647036E-04   0.0000000000E+00  -0.2592702274E-04   0.1664380406E-04   0.0000000000E+00  -0.1062180722E-03   0.5173266631E-04   0.9112828306E+00   0.1375390534E+00   0.1252312458E+00  -0.4311287183E-01   0.2264719417E-01   0.8359644737E-02   0.7233091867E-07
   0.0000000000E+00   0.0000000000E+00   0.9999294163E+00   0.0000000000E+00   0.0000000000E+00  -0.1723768153E-04   0.0000000000E+00   0.0000000000E+00  -0.5334598792E-04   0.8985114081E+00   0.1395524205E+00   0.1359893012E+00  -0.1771435705E-01  -0.1394314099E-01   0.4293211800E-02   0.3583348422E-07
   0.1000880793E+01   0.0000000000E+00   0.9997979099E+00   0.6579726571E-04   0.0000000000E+00  -0.3078402231E-05   0.8149961709E-03   0.0000000000E+00  -0.1990116677E-03   0.8488289887E+00  -0.3539639157E-01  -0.9114199080E-01  -0.9571065643E-02  -0.1535518829E-01   0.1014690921E-02   0.1416107433E-04
   0.1000951953E+01   0.9996694491E+00   0.9997982551E+00   0.7635269794E-04  -0.2132060791E-04  -0.2946472629E-05   0.8756005032E-03  -0.3092302627E-03  -0.1987984366E-03   0.8519703196E+00  -0.3576964920E-01  -0.9391000211E-01  -0.3375034039E-01  -0.1651020619E-01   0.9480272230E-03   0.1333878674E-04
   0.0000000000E+00   0.9998653118E+00   0.9999303366E+00   0.0000000000E+00  -0.2683010528E-04  -0.1710279187E-04   0.0000000000E+00  -0.1078580556E-03  -0.5256056429E-04   0.9112964467E+00   0.1373789719E+00   0.1253777111E+00  -0.4299205958E-01  -0.1615620904E-01   0.4139911281E-02   0.7125756647E-07
   0.2002000000E+01   0.0000000000E+00   0.3414770958E-03   0.1000000000E-03   0.0000000000E+00  -0.8757906330E-05   0.1900000000E-02   0.0000000000E+00   0.3502350021E-03   0.7604387296E+00  -0.1995634374E+00  -0.2903485230E+00  -0.1511003781E-01   0.1578316128E-01   0.2020172704E-04   0.4090567024E-04
   0.2002000000E+01   0.9994663205E+00   0.3426996775E-03   0.1000000000E-03  -0.1808831154E-04  -0.8521391433E-05   0.1900000000E-02  -0.5155911980E-03   0.3512210690E-03   0.7560458499E+00  -0.1968376284E+00  -0.2886812575E+00  -0.3723102173E-01   0.1599358808E-01   0.4653950975E-05   0.3903262254E-04
   0.2002000000E+01   0.0000000000E+00   0.9996585170E+00   0.1000000000E-03   0.0000000000E+00   0.8755150988E-05   0.1900000000E-02   0.0000000000E+00  -0.3502381197E-03   0.7605042759E+00  -0.1996155538E+00  -0.2903619548E+00  -0.1507715785E-01  -0.1574283004E-01  -0.9431529798E-04   0.4092698061E-04
   0.2002000000E+01   0.9994663328E+00   0.9996573053E+00   0.1000000000E-03  -0.1808268036E-04   0.8523626068E-05   0.1900000000E-02  -0.5155845466E-03  -0.3512182845E-03   0.7561035080E+00  -0.1968848404E+00  -0.2886917050E+00  -0.3718116116E-01  -0.1587618685E-01  -0.1093770420E-03   0.3904852339E-04
     1     2     3     4     5     6     7     8
     2     9    10     3     6    11    12     7
 VARIABLES = X,Y,Z,DU1,DU2,DU3,U1,U2,U3,S11,S22,S33,S12,S13,S23,Vf
 ZONE, T="0.3000D+00" F=FEPOINT, I=   12 J=    2 ET=BRICK
   0.0000000000E+00   0.0000000000E+00   0.0000000000E+00   0.0000000000E+00   0.0000000000E+00   0.0000000000E+00   0.0000000000E+00   0.0000000000E+00   0.0000000000E+00   0.1134966336E+01   0.5114911662E-01   0.7609462130E-01   0.1493642829E-01   0.3096205840E-01   0.4063519864E-01   0.8389664381E-04
   0.1001432678E+01   0.0000000000E+00   0.2468978510E-03   0.5355730224E-04   0.0000000000E+00   0.1269498653E-04   0.1379120646E-02   0.0000000000E+00   0.2342028645E-03   0.1145286506E+01   0.7061407280E-01   0.1313794735E+00   0.3010798398E-01   0.8273458316E-02   0.8720121327E-02   0.9194616244E-04
   0.1001592055E+01   0.9994465477E+00   0.2346186850E-03   0.5790962847E-04  -0.2705576258E-04   0.1079495838E-04   0.1534145654E-02  -0.5263965316E-03   0.2238237266E-03   0.1145916879E+01   0.7507366397E-01   0.1262869127E+00   0.3029847730E-01  -0.2177579338E-02   0.7297344990E-02   0.9329406262E-04
   0.0000000000E+00   0.9994607625E+00   0.3753604764E-03   0.0000000000E+00  -0.4690363577E-04   0.3746364046E-04   0.0000000000E+00  -0.4923338697E-03   0.3378968359E-03   0.1141254696E+01   0.6989152977E-01   0.5104784842E-01   0.1532359840E-01   0.8114550899E-02   0.3672589164E-01   0.9788077071E-04
   0.0000000000E+00   0.0000000000E+00   0.9996084979E+00   0.0000000000E+00   0.0000000000E+00  -0.3945489185E-04   0.0000000000E+00   0.0000000000E+00  -0.3520472142E-03   0.1136028716E+01   0.4782055206E-01   0.7836153647E-01   0.1621783162E-01   0.3320561718E-01   0.1857428182E-01   0.8318908791E-04
   0.1001409123E+01   0.0000000000E+00   0.9997385660E+00   0.4923482814E-04   0.0000000000E+00  -0.1554791841E-04   0.1359887725E-02   0.0000000000E+00  -0.2458861029E-03   0.1145821972E+01   0.6918666239E-01   0.1322712831E+00   0.3138194385E-01   0.2094873359E-01   0.3871286300E-02   0.9205489028E-04
   0.1001579695E+01   0.9994367407E+00   0.9997426614E+00   0.5560072774E-04  -0.2872558496E-04  -0.1490023887E-04   0.1524093877E-02  -0.5345336892E-03  -0.2424383502E-03   0.1146279945E+01   0.7374539393E-01   0.1272519330E+00   0.3220351229E-01   0.1601199590E-01   0.2572134860E-02   0.9348437865E-04
   0.0000000000E+00   0.9994166151E+00   0.9996011187E+00   0.0000000000E+00  -0.5474013741E-04  -0.4173986321E-04   0.0000000000E+00  -0.5286447592E-03  -0.3571414806E-03   0.1142066916E+01   0.6677632639E-01   0.5335129843E-01   0.1751218060E-01   0.2238264411E-01   0.1528328689E-01   0.9748394804E-04
   0.2003000000E+01   0.0000000000E+00   0.1604070257E-03   0.1000000000E-03   0.0000000000E+00  -0.7852090511E-05   0.2900000000E-02   0.0000000000E+00   0.1682591162E-03   0.1146364225E+01   0.7067259163E-01   0.2153197464E+00   0.1589697832E-01  -0.1149291250E-01  -0.5184600846E-03   0.1002558033E-03
   0.2003000000E+01   0.9994135021E+00   0.1658852100E-03   0.1000000000E-03  -0.6588300385E-05  -0.7253842498E-05   0.2900000000E-02  -0.5799095560E-03   0.1731390525E-03   0.1142441278E+01   0.7252573989E-01   0.2173968521E+00   0.1618937463E-01  -0.1021382957E-01  -0.7889413615E-03   0.9257438618E-04
   0.2003000000E+01   0.0000000000E+00   0.9998392594E+00   0.1000000000E-03   0.0000000000E+00   0.7770128186E-05   0.2900000000E-02   0.0000000000E+00  -0.1685107280E-03   0.1147345093E+01   0.7002944416E-01   0.2149812062E+00   0.1653363930E-01   0.1255580617E-01  -0.6745873701E-03   0.1009331091E-03
   0.2003000000E+01   0.9994141023E+00   0.9998343172E+00   0.1000000000E-03  -0.6447053809E-05   0.7298606540E-05   0.2900000000E-02  -0.5794506371E-03  -0.1729813902E-03   0.1143264426E+01   0.7194104484E-01   0.2171577714E+00   0.1716964510E-01   0.1279492217E-01  -0.9485192279E-03   0.9312299942E-04
     1     2     3     4     5     6     7     8
     2     9    10     3     6    11    12     7
 VARIABLES = X,Y,Z,DU1,DU2,DU3,U1,U2,U3,S11,S22,S33,S12,S13,S23,Vf
 ZONE, T="0.4000D+00" F=FEPOINT, I=    0 J=    0 ET=BRICK
 VARIABLES = X,Y,Z,DU1,DU2,DU3,U1,U2,U3,S11,S22,S33,S12,S13,S23,Vf
 ZONE, T="0.5000D+00" F=FEPOINT, I=    0 J=    0 ET=BRICK
 VARIABLES = X,Y,Z,DU1,DU2,DU3,U1,U2,U3,S11,S22,S33,S12,S13,S23,Vf
 ZONE, T="0.6000D+00" F=FEPOINT, I=    0 J=    0 ET=BRICK
 VARIABLES = X,Y,Z,DU1,DU2,DU3,U1,U2,U3,S11,S22,S33,S12,S13,S23,Vf
 ZONE, T="0.7000D+00" F=FEPOINT, I=    0 J=    0 ET=BRICK
 VARIABLES = X,Y,Z,DU1,DU2,DU3,U1,U2,U3,S11,S22,S33,S12,S13,S23,Vf
 ZONE, T="0.8000D+00" F=FEPOINT, I=    0 J=    0 ET=BRICK
 VARIABLES = X,Y,Z,DU1,DU2,DU3,U1,U2,U3,S11,S22,S33,S12,S13,S23,Vf
 ZONE, T="0.9000D+00" F=FEPOINT, I=    0 J=    0 ET=BRICK
 VARIABLES = X,Y,Z,DU1,DU2,DU3,U1,U2,U3,S11,S22,S33,S12,S13,S23,Vf
 ZONE, T="0.1000D+01" F=FEPOINT, I=    0 J=    0 ET=BRICK
 VARIABLES = X,Y,Z,DU1,DU2,DU3,U1,U2,U3,S11,S22,S33,S12,S13,S23,Vf
 ZONE, T="0.1100D+01" F=FEPOINT, I=    0 J=    0 ET=BRICK
 VARIABLES = X,Y,Z,DU1,DU2,DU3,U1,U2,U3,S11,S22,S33,S12,S13,S23,Vf
 ZONE, T="0.1200D+01" F=FEPOINT, I=    0 J=    0 ET=BRICK
 VARIABLES = X,Y,Z,DU1,DU2,DU3,U1,U2,U3,S11,S22,S33,S12,S13,S23,Vf
 ZONE, T="0.1300D+01" F=FEPOINT, I=    0 J=    0 ET=BRICK
 VARIABLES = X,Y,Z,DU1,DU2,DU3,U1,U2,U3,S11,S22,S33,S12,S13,S23,Vf
 ZONE, T="0.1400D+01" F=FEPOINT, I=    0 J=    0 ET=BRICK
 VARIABLES = X,Y,Z,DU1,DU2,DU3,U1,U2,U3,S11,S22,S33,S12,S13,S23,Vf
 ZONE, T="0.1500D+01" F=FEPOINT, I=    0 J=    0 ET=BRICK
 VARIABLES = X,Y,Z,DU1,DU2,DU3,U1,U2,U3,S11,S22,S33,S12,S13,S23,Vf
 ZONE, T="0.1600D+01" F=FEPOINT, I=    0 J=    0 ET=BRICK
 VARIABLES = X,Y,Z,DU1,DU2,DU3,U1,U2,U3,S11,S22,S33,S12,S13,S23,Vf
 ZONE, T="0.1700D+01" F=FEPOINT, I=    0 J=    0 ET=BRICK
 VARIABLES = X,Y,Z,DU1,DU2,DU3,U1,U2,U3,S11,S22,S33,S12,S13,S23,Vf
 ZONE, T="0.1800D+01" F=FEPOINT, I=    0 J=    0 ET=BRICK
 VARIABLES = X,Y,Z,DU1,DU2,DU3,U1,U2,U3,S11,S22,S33,S12,S13,S23,Vf
 ZONE, T="0.1900D+01" F=FEPOINT, I=    0 J=    0 ET=BRICK
 VARIABLES = X,Y,Z,DU1,DU2,DU3,U1,U2,U3,S11,S22,S33,S12,S13,S23,Vf
 ZONE, T="0.2000D+01" F=FEPOINT, I=    0 J=    0 ET=BRICK
